H 3138at

3138 atoms
2820 bonds
479 angles
0 dihedrals
0 impropers

12 atom types
6 bond types
7 angle types
0 dihedral types
0 improper types

0 180.0 xlo xhi
0 180.0 ylo yhi
0 180.0 zlo zhi

Masses

  1 12.0110
  2 12.0110
  3 15.9990
  4 1.0080
  5 1.0080
  6 1.0080
  7 47.8670
  8 12.0110
  9 15.9990
  10 1.0080
  11 15.9990
  12 1.0080

Atoms

1 0 7 0.8000 84.750000 84.750000 86.250000
2 0 8 -0.4000 86.250000 84.750000 89.250000
3 0 7 0.8000 84.750000 84.750000 90.750000
4 0 8 -0.4000 86.250000 84.750000 92.250000
5 0 7 0.8000 84.750000 84.750000 95.250000
6 0 9 -0.6000 84.750000 84.750000 84.750000
7 0 10 0.4000 84.750000 84.750000 83.250000
8 0 9 -0.6000 84.750000 84.750000 96.750000
9 0 10 0.4000 84.750000 84.750000 98.250000
10 0 7 0.8000 84.750000 87.750000 86.250000
11 0 8 -0.4000 86.250000 87.750000 89.250000
12 0 7 0.8000 84.750000 87.750000 90.750000
13 0 8 -0.4000 86.250000 87.750000 92.250000
14 0 7 0.8000 84.750000 87.750000 95.250000
15 0 9 -0.6000 84.750000 87.750000 84.750000
16 0 10 0.4000 84.750000 87.750000 83.250000
17 0 9 -0.6000 84.750000 87.750000 96.750000
18 0 10 0.4000 84.750000 87.750000 98.250000
19 0 7 0.8000 84.750000 90.750000 86.250000
20 0 8 -0.4000 86.250000 90.750000 89.250000
21 0 7 0.8000 84.750000 90.750000 90.750000
22 0 8 -0.4000 86.250000 90.750000 92.250000
23 0 7 0.8000 84.750000 90.750000 95.250000
24 0 9 -0.6000 84.750000 90.750000 84.750000
25 0 10 0.4000 84.750000 90.750000 83.250000
26 0 9 -0.6000 84.750000 90.750000 96.750000
27 0 10 0.4000 84.750000 90.750000 98.250000
28 0 7 0.8000 84.750000 93.750000 86.250000
29 0 8 -0.4000 86.250000 93.750000 89.250000
30 0 7 0.8000 84.750000 93.750000 90.750000
31 0 8 -0.4000 86.250000 93.750000 92.250000
32 0 7 0.8000 84.750000 93.750000 95.250000
33 0 9 -0.6000 84.750000 93.750000 84.750000
34 0 10 0.4000 84.750000 93.750000 83.250000
35 0 9 -0.6000 84.750000 93.750000 96.750000
36 0 10 0.4000 84.750000 93.750000 98.250000
37 0 7 0.8000 84.750000 96.750000 86.250000
38 0 8 -0.4000 86.250000 96.750000 89.250000
39 0 7 0.8000 84.750000 96.750000 90.750000
40 0 8 -0.4000 86.250000 96.750000 92.250000
41 0 7 0.8000 84.750000 96.750000 95.250000
42 0 9 -0.6000 84.750000 96.750000 84.750000
43 0 10 0.4000 84.750000 96.750000 83.250000
44 0 9 -0.6000 84.750000 96.750000 96.750000
45 0 10 0.4000 84.750000 96.750000 98.250000
46 0 7 0.8000 87.750000 84.750000 86.250000
47 0 8 -0.4000 89.250000 84.750000 89.250000
48 0 7 0.8000 87.750000 84.750000 90.750000
49 0 8 -0.4000 89.250000 84.750000 92.250000
50 0 7 0.8000 87.750000 84.750000 95.250000
51 0 9 -0.6000 87.750000 84.750000 84.750000
52 0 10 0.4000 87.750000 84.750000 83.250000
53 0 9 -0.6000 87.750000 84.750000 96.750000
54 0 10 0.4000 87.750000 84.750000 98.250000
55 0 7 0.8000 87.750000 87.750000 86.250000
56 0 8 -0.4000 89.250000 87.750000 89.250000
57 0 7 0.8000 87.750000 87.750000 90.750000
58 0 8 -0.4000 89.250000 87.750000 92.250000
59 0 7 0.8000 87.750000 87.750000 95.250000
60 0 9 -0.6000 87.750000 87.750000 84.750000
61 0 10 0.4000 87.750000 87.750000 83.250000
62 0 9 -0.6000 87.750000 87.750000 96.750000
63 0 10 0.4000 87.750000 87.750000 98.250000
64 0 7 0.8000 87.750000 90.750000 86.250000
65 0 8 -0.4000 89.250000 90.750000 89.250000
66 0 7 0.8000 87.750000 90.750000 90.750000
67 0 8 -0.4000 89.250000 90.750000 92.250000
68 0 7 0.8000 87.750000 90.750000 95.250000
69 0 9 -0.6000 87.750000 90.750000 84.750000
70 0 10 0.4000 87.750000 90.750000 83.250000
71 0 9 -0.6000 87.750000 90.750000 96.750000
72 0 10 0.4000 87.750000 90.750000 98.250000
73 0 7 0.8000 87.750000 93.750000 86.250000
74 0 8 -0.4000 89.250000 93.750000 89.250000
75 0 7 0.8000 87.750000 93.750000 90.750000
76 0 8 -0.4000 89.250000 93.750000 92.250000
77 0 7 0.8000 87.750000 93.750000 95.250000
78 0 9 -0.6000 87.750000 93.750000 84.750000
79 0 10 0.4000 87.750000 93.750000 83.250000
80 0 9 -0.6000 87.750000 93.750000 96.750000
81 0 10 0.4000 87.750000 93.750000 98.250000
82 0 7 0.8000 87.750000 96.750000 86.250000
83 0 8 -0.4000 89.250000 96.750000 89.250000
84 0 7 0.8000 87.750000 96.750000 90.750000
85 0 8 -0.4000 89.250000 96.750000 92.250000
86 0 7 0.8000 87.750000 96.750000 95.250000
87 0 9 -0.6000 87.750000 96.750000 84.750000
88 0 10 0.4000 87.750000 96.750000 83.250000
89 0 9 -0.6000 87.750000 96.750000 96.750000
90 0 10 0.4000 87.750000 96.750000 98.250000
91 0 7 0.8000 90.750000 84.750000 86.250000
92 0 8 -0.4000 92.250000 84.750000 89.250000
93 0 7 0.8000 90.750000 84.750000 90.750000
94 0 8 -0.4000 92.250000 84.750000 92.250000
95 0 7 0.8000 90.750000 84.750000 95.250000
96 0 9 -0.6000 90.750000 84.750000 84.750000
97 0 10 0.4000 90.750000 84.750000 83.250000
98 0 9 -0.6000 90.750000 84.750000 96.750000
99 0 10 0.4000 90.750000 84.750000 98.250000
100 0 7 0.8000 90.750000 87.750000 86.250000
101 0 8 -0.4000 92.250000 87.750000 89.250000
102 0 7 0.8000 90.750000 87.750000 90.750000
103 0 8 -0.4000 92.250000 87.750000 92.250000
104 0 7 0.8000 90.750000 87.750000 95.250000
105 0 9 -0.6000 90.750000 87.750000 84.750000
106 0 10 0.4000 90.750000 87.750000 83.250000
107 0 9 -0.6000 90.750000 87.750000 96.750000
108 0 10 0.4000 90.750000 87.750000 98.250000
109 0 7 0.8000 90.750000 90.750000 86.250000
110 0 8 -0.4000 92.250000 90.750000 89.250000
111 0 7 0.8000 90.750000 90.750000 90.750000
112 0 8 -0.4000 92.250000 90.750000 92.250000
113 0 7 0.8000 90.750000 90.750000 95.250000
114 0 9 -0.6000 90.750000 90.750000 84.750000
115 0 10 0.4000 90.750000 90.750000 83.250000
116 0 9 -0.6000 90.750000 90.750000 96.750000
117 0 10 0.4000 90.750000 90.750000 98.250000
118 0 7 0.8000 90.750000 93.750000 86.250000
119 0 8 -0.4000 92.250000 93.750000 89.250000
120 0 7 0.8000 90.750000 93.750000 90.750000
121 0 8 -0.4000 92.250000 93.750000 92.250000
122 0 7 0.8000 90.750000 93.750000 95.250000
123 0 9 -0.6000 90.750000 93.750000 84.750000
124 0 10 0.4000 90.750000 93.750000 83.250000
125 0 9 -0.6000 90.750000 93.750000 96.750000
126 0 10 0.4000 90.750000 93.750000 98.250000
127 0 7 0.8000 90.750000 96.750000 86.250000
128 0 8 -0.4000 92.250000 96.750000 89.250000
129 0 7 0.8000 90.750000 96.750000 90.750000
130 0 8 -0.4000 92.250000 96.750000 92.250000
131 0 7 0.8000 90.750000 96.750000 95.250000
132 0 9 -0.6000 90.750000 96.750000 84.750000
133 0 10 0.4000 90.750000 96.750000 83.250000
134 0 9 -0.6000 90.750000 96.750000 96.750000
135 0 10 0.4000 90.750000 96.750000 98.250000
136 0 7 0.8000 93.750000 84.750000 86.250000
137 0 8 -0.4000 95.250000 84.750000 89.250000
138 0 7 0.8000 93.750000 84.750000 90.750000
139 0 8 -0.4000 95.250000 84.750000 92.250000
140 0 7 0.8000 93.750000 84.750000 95.250000
141 0 9 -0.6000 93.750000 84.750000 84.750000
142 0 10 0.4000 93.750000 84.750000 83.250000
143 0 9 -0.6000 93.750000 84.750000 96.750000
144 0 10 0.4000 93.750000 84.750000 98.250000
145 0 7 0.8000 93.750000 87.750000 86.250000
146 0 8 -0.4000 95.250000 87.750000 89.250000
147 0 7 0.8000 93.750000 87.750000 90.750000
148 0 8 -0.4000 95.250000 87.750000 92.250000
149 0 7 0.8000 93.750000 87.750000 95.250000
150 0 9 -0.6000 93.750000 87.750000 84.750000
151 0 10 0.4000 93.750000 87.750000 83.250000
152 0 9 -0.6000 93.750000 87.750000 96.750000
153 0 10 0.4000 93.750000 87.750000 98.250000
154 0 7 0.8000 93.750000 90.750000 86.250000
155 0 8 -0.4000 95.250000 90.750000 89.250000
156 0 7 0.8000 93.750000 90.750000 90.750000
157 0 8 -0.4000 95.250000 90.750000 92.250000
158 0 7 0.8000 93.750000 90.750000 95.250000
159 0 9 -0.6000 93.750000 90.750000 84.750000
160 0 10 0.4000 93.750000 90.750000 83.250000
161 0 9 -0.6000 93.750000 90.750000 96.750000
162 0 10 0.4000 93.750000 90.750000 98.250000
163 0 7 0.8000 93.750000 93.750000 86.250000
164 0 8 -0.4000 95.250000 93.750000 89.250000
165 0 7 0.8000 93.750000 93.750000 90.750000
166 0 8 -0.4000 95.250000 93.750000 92.250000
167 0 7 0.8000 93.750000 93.750000 95.250000
168 0 9 -0.6000 93.750000 93.750000 84.750000
169 0 10 0.4000 93.750000 93.750000 83.250000
170 0 9 -0.6000 93.750000 93.750000 96.750000
171 0 10 0.4000 93.750000 93.750000 98.250000
172 0 7 0.8000 93.750000 96.750000 86.250000
173 0 8 -0.4000 95.250000 96.750000 89.250000
174 0 7 0.8000 93.750000 96.750000 90.750000
175 0 8 -0.4000 95.250000 96.750000 92.250000
176 0 7 0.8000 93.750000 96.750000 95.250000
177 0 9 -0.6000 93.750000 96.750000 84.750000
178 0 10 0.4000 93.750000 96.750000 83.250000
179 0 9 -0.6000 93.750000 96.750000 96.750000
180 0 10 0.4000 93.750000 96.750000 98.250000
181 0 7 0.8000 96.750000 84.750000 86.250000
182 0 8 -0.4000 98.250000 84.750000 89.250000
183 0 7 0.8000 96.750000 84.750000 90.750000
184 0 8 -0.4000 98.250000 84.750000 92.250000
185 0 7 0.8000 96.750000 84.750000 95.250000
186 0 9 -0.6000 96.750000 84.750000 84.750000
187 0 10 0.4000 96.750000 84.750000 83.250000
188 0 9 -0.6000 96.750000 84.750000 96.750000
189 0 10 0.4000 96.750000 84.750000 98.250000
190 0 7 0.8000 96.750000 87.750000 86.250000
191 0 8 -0.4000 98.250000 87.750000 89.250000
192 0 7 0.8000 96.750000 87.750000 90.750000
193 0 8 -0.4000 98.250000 87.750000 92.250000
194 0 7 0.8000 96.750000 87.750000 95.250000
195 0 9 -0.6000 96.750000 87.750000 84.750000
196 0 10 0.4000 96.750000 87.750000 83.250000
197 0 9 -0.6000 96.750000 87.750000 96.750000
198 0 10 0.4000 96.750000 87.750000 98.250000
199 0 7 0.8000 96.750000 90.750000 86.250000
200 0 8 -0.4000 98.250000 90.750000 89.250000
201 0 7 0.8000 96.750000 90.750000 90.750000
202 0 8 -0.4000 98.250000 90.750000 92.250000
203 0 7 0.8000 96.750000 90.750000 95.250000
204 0 9 -0.6000 96.750000 90.750000 84.750000
205 0 10 0.4000 96.750000 90.750000 83.250000
206 0 9 -0.6000 96.750000 90.750000 96.750000
207 0 10 0.4000 96.750000 90.750000 98.250000
208 0 7 0.8000 96.750000 93.750000 86.250000
209 0 8 -0.4000 98.250000 93.750000 89.250000
210 0 7 0.8000 96.750000 93.750000 90.750000
211 0 8 -0.4000 98.250000 93.750000 92.250000
212 0 7 0.8000 96.750000 93.750000 95.250000
213 0 9 -0.6000 96.750000 93.750000 84.750000
214 0 10 0.4000 96.750000 93.750000 83.250000
215 0 9 -0.6000 96.750000 93.750000 96.750000
216 0 10 0.4000 96.750000 93.750000 98.250000
217 0 7 0.8000 96.750000 96.750000 86.250000
218 0 8 -0.4000 98.250000 96.750000 89.250000
219 0 7 0.8000 96.750000 96.750000 90.750000
220 0 8 -0.4000 98.250000 96.750000 92.250000
221 0 7 0.8000 96.750000 96.750000 95.250000
222 0 9 -0.6000 96.750000 96.750000 84.750000
223 0 10 0.4000 96.750000 96.750000 83.250000
224 0 9 -0.6000 96.750000 96.750000 96.750000
225 0 10 0.4000 96.750000 96.750000 98.250000
226 1 1 0.0000 8.250000 8.250000 8.250000
227 1 5 0.0600 9.750000 8.250000 8.250000
228 1 5 0.0600 8.250000 9.750000 8.250000
229 1 2 0.2000 9.750000 9.750000 8.250000
230 1 6 0.0600 6.750000 8.250000 8.250000
231 1 3 -0.6000 9.750000 9.750000 9.750000
232 1 4 0.4000 9.750000 9.750000 11.250000
233 1 1 0.0000 8.250000 8.250000 12.750000
234 1 5 0.0600 9.750000 8.250000 12.750000
235 1 5 0.0600 8.250000 9.750000 12.750000
236 1 2 0.2000 9.750000 9.750000 12.750000
237 1 6 0.0600 6.750000 8.250000 12.750000
238 1 3 -0.6000 9.750000 9.750000 14.250000
239 1 4 0.4000 9.750000 9.750000 15.750000
240 1 1 0.0000 8.250000 8.250000 17.250000
241 1 5 0.0600 9.750000 8.250000 17.250000
242 1 5 0.0600 8.250000 9.750000 17.250000
243 1 2 0.2000 9.750000 9.750000 17.250000
244 1 6 0.0600 6.750000 8.250000 17.250000
245 1 3 -0.6000 9.750000 9.750000 18.750000
246 1 4 0.4000 9.750000 9.750000 20.250000
247 1 1 0.0000 8.250000 8.250000 21.750000
248 1 5 0.0600 9.750000 8.250000 21.750000
249 1 5 0.0600 8.250000 9.750000 21.750000
250 1 2 0.2000 9.750000 9.750000 21.750000
251 1 6 0.0600 6.750000 8.250000 21.750000
252 1 3 -0.6000 9.750000 9.750000 23.250000
253 1 4 0.4000 9.750000 9.750000 24.750000
254 1 1 0.0000 8.250000 8.250000 26.250000
255 1 5 0.0600 9.750000 8.250000 26.250000
256 1 5 0.0600 8.250000 9.750000 26.250000
257 1 2 0.2000 9.750000 9.750000 26.250000
258 1 6 0.0600 6.750000 8.250000 26.250000
259 1 3 -0.6000 9.750000 9.750000 27.750000
260 1 4 0.4000 9.750000 9.750000 29.250000
261 1 1 0.0000 8.250000 8.250000 30.750000
262 1 5 0.0600 9.750000 8.250000 30.750000
263 1 5 0.0600 8.250000 9.750000 30.750000
264 1 2 0.2000 9.750000 9.750000 30.750000
265 1 6 0.0600 6.750000 8.250000 30.750000
266 1 3 -0.6000 9.750000 9.750000 32.250000
267 1 4 0.4000 9.750000 9.750000 33.750000
268 1 1 0.0000 8.250000 8.250000 35.250000
269 1 5 0.0600 9.750000 8.250000 35.250000
270 1 5 0.0600 8.250000 9.750000 35.250000
271 1 2 0.2000 9.750000 9.750000 35.250000
272 1 6 0.0600 6.750000 8.250000 35.250000
273 1 3 -0.6000 9.750000 9.750000 36.750000
274 1 4 0.4000 9.750000 9.750000 38.250000
275 1 1 0.0000 8.250000 8.250000 39.750000
276 1 5 0.0600 9.750000 8.250000 39.750000
277 1 5 0.0600 8.250000 9.750000 39.750000
278 1 2 0.2000 9.750000 9.750000 39.750000
279 1 6 0.0600 6.750000 8.250000 39.750000
280 1 3 -0.6000 9.750000 9.750000 41.250000
281 1 4 0.4000 9.750000 9.750000 42.750000
282 1 1 0.0000 8.250000 8.250000 44.250000
283 1 5 0.0600 9.750000 8.250000 44.250000
284 1 5 0.0600 8.250000 9.750000 44.250000
285 1 2 0.2000 9.750000 9.750000 44.250000
286 1 6 0.0600 6.750000 8.250000 44.250000
287 1 3 -0.6000 9.750000 9.750000 45.750000
288 1 4 0.4000 9.750000 9.750000 47.250000
289 1 1 0.0000 8.250000 8.250000 48.750000
290 1 5 0.0600 9.750000 8.250000 48.750000
291 1 5 0.0600 8.250000 9.750000 48.750000
292 1 2 0.2000 9.750000 9.750000 48.750000
293 1 6 0.0600 6.750000 8.250000 48.750000
294 1 3 -0.6000 9.750000 9.750000 50.250000
295 1 4 0.4000 9.750000 9.750000 51.750000
296 1 1 0.0000 8.250000 8.250000 53.250000
297 1 5 0.0600 9.750000 8.250000 53.250000
298 1 5 0.0600 8.250000 9.750000 53.250000
299 1 2 0.2000 9.750000 9.750000 53.250000
300 1 6 0.0600 6.750000 8.250000 53.250000
301 1 3 -0.6000 9.750000 9.750000 54.750000
302 1 4 0.4000 9.750000 9.750000 56.250000
303 1 1 0.0000 8.250000 8.250000 57.750000
304 1 5 0.0600 9.750000 8.250000 57.750000
305 1 5 0.0600 8.250000 9.750000 57.750000
306 1 2 0.2000 9.750000 9.750000 57.750000
307 1 6 0.0600 6.750000 8.250000 57.750000
308 1 3 -0.6000 9.750000 9.750000 59.250000
309 1 4 0.4000 9.750000 9.750000 60.750000
310 1 1 0.0000 8.250000 8.250000 62.250000
311 1 5 0.0600 9.750000 8.250000 62.250000
312 1 5 0.0600 8.250000 9.750000 62.250000
313 1 2 0.2000 9.750000 9.750000 62.250000
314 1 6 0.0600 6.750000 8.250000 62.250000
315 1 3 -0.6000 9.750000 9.750000 63.750000
316 1 4 0.4000 9.750000 9.750000 65.250000
317 1 1 0.0000 8.250000 8.250000 66.750000
318 1 5 0.0600 9.750000 8.250000 66.750000
319 1 5 0.0600 8.250000 9.750000 66.750000
320 1 2 0.2000 9.750000 9.750000 66.750000
321 1 6 0.0600 6.750000 8.250000 66.750000
322 1 3 -0.6000 9.750000 9.750000 68.250000
323 1 4 0.4000 9.750000 9.750000 69.750000
324 1 1 0.0000 8.250000 8.250000 71.250000
325 1 5 0.0600 9.750000 8.250000 71.250000
326 1 5 0.0600 8.250000 9.750000 71.250000
327 1 2 0.2000 9.750000 9.750000 71.250000
328 1 6 0.0600 6.750000 8.250000 71.250000
329 1 3 -0.6000 9.750000 9.750000 72.750000
330 1 4 0.4000 9.750000 9.750000 74.250000
331 1 1 0.0000 8.250000 8.250000 75.750000
332 1 5 0.0600 9.750000 8.250000 75.750000
333 1 5 0.0600 8.250000 9.750000 75.750000
334 1 2 0.2000 9.750000 9.750000 75.750000
335 1 6 0.0600 6.750000 8.250000 75.750000
336 1 3 -0.6000 9.750000 9.750000 77.250000
337 1 4 0.4000 9.750000 9.750000 78.750000
338 1 1 0.0000 8.250000 8.250000 80.250000
339 1 5 0.0600 9.750000 8.250000 80.250000
340 1 5 0.0600 8.250000 9.750000 80.250000
341 1 2 0.2000 9.750000 9.750000 80.250000
342 1 6 0.0600 6.750000 8.250000 80.250000
343 1 3 -0.6000 9.750000 9.750000 81.750000
344 1 4 0.4000 9.750000 9.750000 83.250000
345 1 1 0.0000 8.250000 8.250000 84.750000
346 1 5 0.0600 9.750000 8.250000 84.750000
347 1 5 0.0600 8.250000 9.750000 84.750000
348 1 2 0.2000 9.750000 9.750000 84.750000
349 1 6 0.0600 6.750000 8.250000 84.750000
350 1 3 -0.6000 9.750000 9.750000 86.250000
351 1 4 0.4000 9.750000 9.750000 87.750000
352 1 1 0.0000 8.250000 8.250000 89.250000
353 1 5 0.0600 9.750000 8.250000 89.250000
354 1 5 0.0600 8.250000 9.750000 89.250000
355 1 2 0.2000 9.750000 9.750000 89.250000
356 1 6 0.0600 6.750000 8.250000 89.250000
357 1 3 -0.6000 9.750000 9.750000 90.750000
358 1 4 0.4000 9.750000 9.750000 92.250000
359 1 1 0.0000 8.250000 8.250000 93.750000
360 1 5 0.0600 9.750000 8.250000 93.750000
361 1 5 0.0600 8.250000 9.750000 93.750000
362 1 2 0.2000 9.750000 9.750000 93.750000
363 1 6 0.0600 6.750000 8.250000 93.750000
364 1 3 -0.6000 9.750000 9.750000 95.250000
365 1 4 0.4000 9.750000 9.750000 96.750000
366 1 1 0.0000 8.250000 8.250000 98.250000
367 1 5 0.0600 9.750000 8.250000 98.250000
368 1 5 0.0600 8.250000 9.750000 98.250000
369 1 2 0.2000 9.750000 9.750000 98.250000
370 1 6 0.0600 6.750000 8.250000 98.250000
371 1 3 -0.6000 9.750000 9.750000 99.750000
372 1 4 0.4000 9.750000 9.750000 101.250000
373 1 1 0.0000 8.250000 8.250000 102.750000
374 1 5 0.0600 9.750000 8.250000 102.750000
375 1 5 0.0600 8.250000 9.750000 102.750000
376 1 2 0.2000 9.750000 9.750000 102.750000
377 1 6 0.0600 6.750000 8.250000 102.750000
378 1 3 -0.6000 9.750000 9.750000 104.250000
379 1 4 0.4000 9.750000 9.750000 105.750000
380 1 1 0.0000 8.250000 8.250000 107.250000
381 1 5 0.0600 9.750000 8.250000 107.250000
382 1 5 0.0600 8.250000 9.750000 107.250000
383 1 2 0.2000 9.750000 9.750000 107.250000
384 1 6 0.0600 6.750000 8.250000 107.250000
385 1 3 -0.6000 9.750000 9.750000 108.750000
386 1 4 0.4000 9.750000 9.750000 110.250000
387 1 1 0.0000 8.250000 8.250000 111.750000
388 1 5 0.0600 9.750000 8.250000 111.750000
389 1 5 0.0600 8.250000 9.750000 111.750000
390 1 2 0.2000 9.750000 9.750000 111.750000
391 1 6 0.0600 6.750000 8.250000 111.750000
392 1 3 -0.6000 9.750000 9.750000 113.250000
393 1 4 0.4000 9.750000 9.750000 114.750000
394 1 1 0.0000 8.250000 8.250000 116.250000
395 1 5 0.0600 9.750000 8.250000 116.250000
396 1 5 0.0600 8.250000 9.750000 116.250000
397 1 2 0.2000 9.750000 9.750000 116.250000
398 1 6 0.0600 6.750000 8.250000 116.250000
399 1 3 -0.6000 9.750000 9.750000 117.750000
400 1 4 0.4000 9.750000 9.750000 119.250000
401 1 1 0.0000 8.250000 8.250000 120.750000
402 1 5 0.0600 9.750000 8.250000 120.750000
403 1 5 0.0600 8.250000 9.750000 120.750000
404 1 2 0.2000 9.750000 9.750000 120.750000
405 1 6 0.0600 6.750000 8.250000 120.750000
406 1 3 -0.6000 9.750000 9.750000 122.250000
407 1 4 0.4000 9.750000 9.750000 123.750000
408 1 1 0.0000 8.250000 8.250000 125.250000
409 1 5 0.0600 9.750000 8.250000 125.250000
410 1 5 0.0600 8.250000 9.750000 125.250000
411 1 2 0.2000 9.750000 9.750000 125.250000
412 1 6 0.0600 6.750000 8.250000 125.250000
413 1 3 -0.6000 9.750000 9.750000 126.750000
414 1 4 0.4000 9.750000 9.750000 128.250000
415 1 1 0.0000 8.250000 8.250000 129.750000
416 1 5 0.0600 9.750000 8.250000 129.750000
417 1 5 0.0600 8.250000 9.750000 129.750000
418 1 2 0.2000 9.750000 9.750000 129.750000
419 1 6 0.0600 6.750000 8.250000 129.750000
420 1 3 -0.6000 9.750000 9.750000 131.250000
421 1 4 0.4000 9.750000 9.750000 132.750000
422 1 1 0.0000 8.250000 8.250000 134.250000
423 1 5 0.0600 9.750000 8.250000 134.250000
424 1 5 0.0600 8.250000 9.750000 134.250000
425 1 2 0.2000 9.750000 9.750000 134.250000
426 1 6 0.0600 6.750000 8.250000 134.250000
427 1 3 -0.6000 9.750000 9.750000 135.750000
428 1 4 0.4000 9.750000 9.750000 137.250000
429 1 1 0.0000 8.250000 8.250000 138.750000
430 1 5 0.0600 9.750000 8.250000 138.750000
431 1 5 0.0600 8.250000 9.750000 138.750000
432 1 2 0.2000 9.750000 9.750000 138.750000
433 1 6 0.0600 6.750000 8.250000 138.750000
434 1 3 -0.6000 9.750000 9.750000 140.250000
435 1 4 0.4000 9.750000 9.750000 141.750000
436 2 1 0.0000 8.250000 68.250000 8.250000
437 2 5 0.0600 9.750000 68.250000 8.250000
438 2 5 0.0600 8.250000 69.750000 8.250000
439 2 2 0.2000 9.750000 69.750000 8.250000
440 2 6 0.0600 6.750000 68.250000 8.250000
441 2 3 -0.6000 9.750000 69.750000 9.750000
442 2 4 0.4000 9.750000 69.750000 11.250000
443 2 1 0.0000 8.250000 68.250000 12.750000
444 2 5 0.0600 9.750000 68.250000 12.750000
445 2 5 0.0600 8.250000 69.750000 12.750000
446 2 2 0.2000 9.750000 69.750000 12.750000
447 2 6 0.0600 6.750000 68.250000 12.750000
448 2 3 -0.6000 9.750000 69.750000 14.250000
449 2 4 0.4000 9.750000 69.750000 15.750000
450 2 1 0.0000 8.250000 68.250000 17.250000
451 2 5 0.0600 9.750000 68.250000 17.250000
452 2 5 0.0600 8.250000 69.750000 17.250000
453 2 2 0.2000 9.750000 69.750000 17.250000
454 2 6 0.0600 6.750000 68.250000 17.250000
455 2 3 -0.6000 9.750000 69.750000 18.750000
456 2 4 0.4000 9.750000 69.750000 20.250000
457 2 1 0.0000 8.250000 68.250000 21.750000
458 2 5 0.0600 9.750000 68.250000 21.750000
459 2 5 0.0600 8.250000 69.750000 21.750000
460 2 2 0.2000 9.750000 69.750000 21.750000
461 2 6 0.0600 6.750000 68.250000 21.750000
462 2 3 -0.6000 9.750000 69.750000 23.250000
463 2 4 0.4000 9.750000 69.750000 24.750000
464 2 1 0.0000 8.250000 68.250000 26.250000
465 2 5 0.0600 9.750000 68.250000 26.250000
466 2 5 0.0600 8.250000 69.750000 26.250000
467 2 2 0.2000 9.750000 69.750000 26.250000
468 2 6 0.0600 6.750000 68.250000 26.250000
469 2 3 -0.6000 9.750000 69.750000 27.750000
470 2 4 0.4000 9.750000 69.750000 29.250000
471 2 1 0.0000 8.250000 68.250000 30.750000
472 2 5 0.0600 9.750000 68.250000 30.750000
473 2 5 0.0600 8.250000 69.750000 30.750000
474 2 2 0.2000 9.750000 69.750000 30.750000
475 2 6 0.0600 6.750000 68.250000 30.750000
476 2 3 -0.6000 9.750000 69.750000 32.250000
477 2 4 0.4000 9.750000 69.750000 33.750000
478 2 1 0.0000 8.250000 68.250000 35.250000
479 2 5 0.0600 9.750000 68.250000 35.250000
480 2 5 0.0600 8.250000 69.750000 35.250000
481 2 2 0.2000 9.750000 69.750000 35.250000
482 2 6 0.0600 6.750000 68.250000 35.250000
483 2 3 -0.6000 9.750000 69.750000 36.750000
484 2 4 0.4000 9.750000 69.750000 38.250000
485 2 1 0.0000 8.250000 68.250000 39.750000
486 2 5 0.0600 9.750000 68.250000 39.750000
487 2 5 0.0600 8.250000 69.750000 39.750000
488 2 2 0.2000 9.750000 69.750000 39.750000
489 2 6 0.0600 6.750000 68.250000 39.750000
490 2 3 -0.6000 9.750000 69.750000 41.250000
491 2 4 0.4000 9.750000 69.750000 42.750000
492 2 1 0.0000 8.250000 68.250000 44.250000
493 2 5 0.0600 9.750000 68.250000 44.250000
494 2 5 0.0600 8.250000 69.750000 44.250000
495 2 2 0.2000 9.750000 69.750000 44.250000
496 2 6 0.0600 6.750000 68.250000 44.250000
497 2 3 -0.6000 9.750000 69.750000 45.750000
498 2 4 0.4000 9.750000 69.750000 47.250000
499 2 1 0.0000 8.250000 68.250000 48.750000
500 2 5 0.0600 9.750000 68.250000 48.750000
501 2 5 0.0600 8.250000 69.750000 48.750000
502 2 2 0.2000 9.750000 69.750000 48.750000
503 2 6 0.0600 6.750000 68.250000 48.750000
504 2 3 -0.6000 9.750000 69.750000 50.250000
505 2 4 0.4000 9.750000 69.750000 51.750000
506 2 1 0.0000 8.250000 68.250000 53.250000
507 2 5 0.0600 9.750000 68.250000 53.250000
508 2 5 0.0600 8.250000 69.750000 53.250000
509 2 2 0.2000 9.750000 69.750000 53.250000
510 2 6 0.0600 6.750000 68.250000 53.250000
511 2 3 -0.6000 9.750000 69.750000 54.750000
512 2 4 0.4000 9.750000 69.750000 56.250000
513 2 1 0.0000 8.250000 68.250000 57.750000
514 2 5 0.0600 9.750000 68.250000 57.750000
515 2 5 0.0600 8.250000 69.750000 57.750000
516 2 2 0.2000 9.750000 69.750000 57.750000
517 2 6 0.0600 6.750000 68.250000 57.750000
518 2 3 -0.6000 9.750000 69.750000 59.250000
519 2 4 0.4000 9.750000 69.750000 60.750000
520 2 1 0.0000 8.250000 68.250000 62.250000
521 2 5 0.0600 9.750000 68.250000 62.250000
522 2 5 0.0600 8.250000 69.750000 62.250000
523 2 2 0.2000 9.750000 69.750000 62.250000
524 2 6 0.0600 6.750000 68.250000 62.250000
525 2 3 -0.6000 9.750000 69.750000 63.750000
526 2 4 0.4000 9.750000 69.750000 65.250000
527 2 1 0.0000 8.250000 68.250000 66.750000
528 2 5 0.0600 9.750000 68.250000 66.750000
529 2 5 0.0600 8.250000 69.750000 66.750000
530 2 2 0.2000 9.750000 69.750000 66.750000
531 2 6 0.0600 6.750000 68.250000 66.750000
532 2 3 -0.6000 9.750000 69.750000 68.250000
533 2 4 0.4000 9.750000 69.750000 69.750000
534 2 1 0.0000 8.250000 68.250000 71.250000
535 2 5 0.0600 9.750000 68.250000 71.250000
536 2 5 0.0600 8.250000 69.750000 71.250000
537 2 2 0.2000 9.750000 69.750000 71.250000
538 2 6 0.0600 6.750000 68.250000 71.250000
539 2 3 -0.6000 9.750000 69.750000 72.750000
540 2 4 0.4000 9.750000 69.750000 74.250000
541 2 1 0.0000 8.250000 68.250000 75.750000
542 2 5 0.0600 9.750000 68.250000 75.750000
543 2 5 0.0600 8.250000 69.750000 75.750000
544 2 2 0.2000 9.750000 69.750000 75.750000
545 2 6 0.0600 6.750000 68.250000 75.750000
546 2 3 -0.6000 9.750000 69.750000 77.250000
547 2 4 0.4000 9.750000 69.750000 78.750000
548 2 1 0.0000 8.250000 68.250000 80.250000
549 2 5 0.0600 9.750000 68.250000 80.250000
550 2 5 0.0600 8.250000 69.750000 80.250000
551 2 2 0.2000 9.750000 69.750000 80.250000
552 2 6 0.0600 6.750000 68.250000 80.250000
553 2 3 -0.6000 9.750000 69.750000 81.750000
554 2 4 0.4000 9.750000 69.750000 83.250000
555 2 1 0.0000 8.250000 68.250000 84.750000
556 2 5 0.0600 9.750000 68.250000 84.750000
557 2 5 0.0600 8.250000 69.750000 84.750000
558 2 2 0.2000 9.750000 69.750000 84.750000
559 2 6 0.0600 6.750000 68.250000 84.750000
560 2 3 -0.6000 9.750000 69.750000 86.250000
561 2 4 0.4000 9.750000 69.750000 87.750000
562 2 1 0.0000 8.250000 68.250000 89.250000
563 2 5 0.0600 9.750000 68.250000 89.250000
564 2 5 0.0600 8.250000 69.750000 89.250000
565 2 2 0.2000 9.750000 69.750000 89.250000
566 2 6 0.0600 6.750000 68.250000 89.250000
567 2 3 -0.6000 9.750000 69.750000 90.750000
568 2 4 0.4000 9.750000 69.750000 92.250000
569 2 1 0.0000 8.250000 68.250000 93.750000
570 2 5 0.0600 9.750000 68.250000 93.750000
571 2 5 0.0600 8.250000 69.750000 93.750000
572 2 2 0.2000 9.750000 69.750000 93.750000
573 2 6 0.0600 6.750000 68.250000 93.750000
574 2 3 -0.6000 9.750000 69.750000 95.250000
575 2 4 0.4000 9.750000 69.750000 96.750000
576 2 1 0.0000 8.250000 68.250000 98.250000
577 2 5 0.0600 9.750000 68.250000 98.250000
578 2 5 0.0600 8.250000 69.750000 98.250000
579 2 2 0.2000 9.750000 69.750000 98.250000
580 2 6 0.0600 6.750000 68.250000 98.250000
581 2 3 -0.6000 9.750000 69.750000 99.750000
582 2 4 0.4000 9.750000 69.750000 101.250000
583 2 1 0.0000 8.250000 68.250000 102.750000
584 2 5 0.0600 9.750000 68.250000 102.750000
585 2 5 0.0600 8.250000 69.750000 102.750000
586 2 2 0.2000 9.750000 69.750000 102.750000
587 2 6 0.0600 6.750000 68.250000 102.750000
588 2 3 -0.6000 9.750000 69.750000 104.250000
589 2 4 0.4000 9.750000 69.750000 105.750000
590 2 1 0.0000 8.250000 68.250000 107.250000
591 2 5 0.0600 9.750000 68.250000 107.250000
592 2 5 0.0600 8.250000 69.750000 107.250000
593 2 2 0.2000 9.750000 69.750000 107.250000
594 2 6 0.0600 6.750000 68.250000 107.250000
595 2 3 -0.6000 9.750000 69.750000 108.750000
596 2 4 0.4000 9.750000 69.750000 110.250000
597 2 1 0.0000 8.250000 68.250000 111.750000
598 2 5 0.0600 9.750000 68.250000 111.750000
599 2 5 0.0600 8.250000 69.750000 111.750000
600 2 2 0.2000 9.750000 69.750000 111.750000
601 2 6 0.0600 6.750000 68.250000 111.750000
602 2 3 -0.6000 9.750000 69.750000 113.250000
603 2 4 0.4000 9.750000 69.750000 114.750000
604 2 1 0.0000 8.250000 68.250000 116.250000
605 2 5 0.0600 9.750000 68.250000 116.250000
606 2 5 0.0600 8.250000 69.750000 116.250000
607 2 2 0.2000 9.750000 69.750000 116.250000
608 2 6 0.0600 6.750000 68.250000 116.250000
609 2 3 -0.6000 9.750000 69.750000 117.750000
610 2 4 0.4000 9.750000 69.750000 119.250000
611 2 1 0.0000 8.250000 68.250000 120.750000
612 2 5 0.0600 9.750000 68.250000 120.750000
613 2 5 0.0600 8.250000 69.750000 120.750000
614 2 2 0.2000 9.750000 69.750000 120.750000
615 2 6 0.0600 6.750000 68.250000 120.750000
616 2 3 -0.6000 9.750000 69.750000 122.250000
617 2 4 0.4000 9.750000 69.750000 123.750000
618 2 1 0.0000 8.250000 68.250000 125.250000
619 2 5 0.0600 9.750000 68.250000 125.250000
620 2 5 0.0600 8.250000 69.750000 125.250000
621 2 2 0.2000 9.750000 69.750000 125.250000
622 2 6 0.0600 6.750000 68.250000 125.250000
623 2 3 -0.6000 9.750000 69.750000 126.750000
624 2 4 0.4000 9.750000 69.750000 128.250000
625 2 1 0.0000 8.250000 68.250000 129.750000
626 2 5 0.0600 9.750000 68.250000 129.750000
627 2 5 0.0600 8.250000 69.750000 129.750000
628 2 2 0.2000 9.750000 69.750000 129.750000
629 2 6 0.0600 6.750000 68.250000 129.750000
630 2 3 -0.6000 9.750000 69.750000 131.250000
631 2 4 0.4000 9.750000 69.750000 132.750000
632 2 1 0.0000 8.250000 68.250000 134.250000
633 2 5 0.0600 9.750000 68.250000 134.250000
634 2 5 0.0600 8.250000 69.750000 134.250000
635 2 2 0.2000 9.750000 69.750000 134.250000
636 2 6 0.0600 6.750000 68.250000 134.250000
637 2 3 -0.6000 9.750000 69.750000 135.750000
638 2 4 0.4000 9.750000 69.750000 137.250000
639 2 1 0.0000 8.250000 68.250000 138.750000
640 2 5 0.0600 9.750000 68.250000 138.750000
641 2 5 0.0600 8.250000 69.750000 138.750000
642 2 2 0.2000 9.750000 69.750000 138.750000
643 2 6 0.0600 6.750000 68.250000 138.750000
644 2 3 -0.6000 9.750000 69.750000 140.250000
645 2 4 0.4000 9.750000 69.750000 141.750000
646 3 1 0.0000 8.250000 128.250000 8.250000
647 3 5 0.0600 9.750000 128.250000 8.250000
648 3 5 0.0600 8.250000 129.750000 8.250000
649 3 2 0.2000 9.750000 129.750000 8.250000
650 3 6 0.0600 6.750000 128.250000 8.250000
651 3 3 -0.6000 9.750000 129.750000 9.750000
652 3 4 0.4000 9.750000 129.750000 11.250000