ITEM: TIMESTEP
15000
ITEM: NUMBER OF ATOMS
300
ITEM: BOX BOUNDS pp pp pp
-1.7429712554384828e+01 2.9228712554384828e+01
-2.7348794165904415e+01 2.9223794165904415e+01
-2.8425676051404544e+01 2.6357676051373957e+01
ITEM: ATOMS id type x y z
217 1 4.4676 -10.7072 -11.6587
127 1 10.3621 -13.518 -13.1743
211 1 7.23189 -11.4599 -18.1072
128 1 9.00462 -12.6223 -13.2355
216 1 4.31185 -11.3775 -13.0602
214 1 4.3296 -10.9455 -15.6426
215 1 4.26341 -10.3481 -14.1374
212 1 5.9762 -11.849 -17.3312
196 1 7.41521 -8.74572 -12.7287
200 1 10.4635 -9.09566 -15.3784
197 1 7.80724 -7.6383 -13.7183
198 1 8.20028 -8.36049 -14.9838
199 1 9.5619 -7.96463 -15.3883
213 1 5.82787 -11.049 -16.1201
202 1 11.3853 -8.77052 -12.9211
201 1 11.7127 -8.70692 -14.5005
206 1 10.7508 -4.68004 -13.2577
205 1 11.8328 -5.24919 -12.3336
207 1 11.5277 -3.64616 -14.0089
208 1 10.9323 -3.97483 -15.4099
209 1 10.9476 -2.78865 -16.4098
210 1 11.8765 -3.06655 -17.5626
222 1 6.23005 -13.3857 -6.46482
221 1 6.6519 -12.4355 -7.57201
220 1 5.627 -12.4723 -8.62384
219 1 5.60937 -11.2078 -9.44282
224 1 6.99125 -15.4487 -5.39027
223 1 7.41865 -14.3084 -6.21892
133 1 13.3189 -11.5989 -12.1933
125 1 11.221 -14.6773 -11.1374
126 1 10.1584 -14.8258 -12.328
226 1 7.24966 -17.9111 -5.5476
225 1 7.9817 -16.5785 -5.68369
124 1 10.5549 -14.5437 -9.69315
229 1 9.91682 -20.0382 -7.09979
228 1 8.87247 -19.8875 -6.09004
227 1 7.75018 -18.9823 -6.57364
230 1 11.2422 -19.8387 -6.29043
122 1 12.1512 -13.7008 -7.89922
121 1 11.6875 -13.6699 -6.50327
123 1 11.12 -13.2459 -8.97565
231 1 12.2041 -18.973 -7.02588
232 1 12.5291 -17.7211 -6.12029
135 1 15.3481 -12.2341 -10.7915
134 1 14.4633 -11.0638 -11.4064
137 1 15.8188 -12.3747 -8.24187
139 1 15.4599 -11.3288 -5.91004
136 1 16.2611 -11.7279 -9.54609
138 1 16.4499 -11.6617 -6.97966
233 1 13.8693 -17.7031 -5.53506
218 1 5.47131 -11.4647 -10.9466
180 1 6.18421 -8.8579 -4.52794
132 1 12.2181 -10.4673 -12.5012
129 1 9.04229 -11.6577 -11.9807
130 1 9.76625 -10.2768 -11.9806
195 1 8.31831 -8.80814 -11.4442
194 1 7.88959 -7.69018 -10.3803
203 1 12.1089 -7.69715 -12.1653
204 1 11.2106 -6.53572 -11.8437
131 1 11.2239 -10.303 -11.3988
182 1 11.2246 -11.0777 -9.34181
181 1 9.87366 -11.0546 -8.63057
183 1 11.7901 -9.59324 -9.0715
185 1 12.4051 -9.85398 -6.60101
177 1 9.19286 -10.948 -4.04911
178 1 7.99321 -10.1556 -3.57819
193 1 7.74005 -8.23575 -9.00344
191 1 9.05065 -7.58517 -6.90578
192 1 8.08871 -7.09751 -7.89976
190 1 9.81074 -6.35968 -6.48603
179 1 7.19965 -9.87921 -4.83493
186 1 13.064 -9.09689 -5.36222
184 1 12.8501 -9.56806 -8.0344
189 1 11.2523 -6.60007 -6.37853
144 1 13.218 -7.56088 -8.46895
145 1 12.5486 -6.35128 -7.77634
188 1 11.9829 -6.78404 -5.05943
146 1 12.2804 -5.18514 -8.67103
147 1 12.907 -3.9331 -8.20377
140 1 15.1616 -9.78931 -5.6979
141 1 14.6105 -9.17008 -6.92451
142 1 15.5067 -8.13053 -7.50558
143 1 14.6961 -7.34684 -8.4681
148 1 12.4716 -2.85476 -8.96028
149 1 13.6331 -2.17172 -9.47643
150 1 13.5453 -0.790675 -9.16197
151 1 17.2505 -6.71128 -4.24574
258 1 5.48301 -13.279 1.07344
260 1 5.99993 -11.9382 3.0997
259 1 6.59623 -12.6282 1.88689
238 1 12.9236 -15.3227 -0.685261
236 1 13.6964 -15.4991 -2.88006
240 1 10.8917 -14.8854 0.207755
235 1 14.7672 -15.9497 -3.88476
234 1 14.2092 -16.1751 -5.27961
267 1 12.7044 -10.8201 1.80686
237 1 13.4451 -16.367 -1.66785
269 1 14.6821 -12.3819 1.93642
266 1 11.2515 -10.6558 1.8268
268 1 13.1491 -12.3204 2.09746
270 1 15.1668 -13.7251 2.37936
173 1 13.4248 -11.747 -2.71279
172 1 14.3509 -11.3605 -1.54522
239 1 11.8515 -15.9612 0.102143
257 1 5.53667 -12.6297 -0.384738
175 1 11.2171 -12.2442 -3.23822
174 1 12.0562 -11.8168 -2.1208
171 1 15.3152 -10.2765 -1.993
256 1 4.56063 -11.4335 -0.44307
254 1 4.80495 -9.11627 -0.697806
242 1 1.18243 -8.24815 1.22285
241 1 0.987527 -9.64794 1.66573
243 1 2.18095 -7.5897 2.18393
244 1 1.62818 -6.81591 3.3977
245 1 2.40966 -5.52519 3.65032
252 1 6.13555 -7.88158 1.05055
176 1 9.81599 -11.8002 -3.04632
187 1 12.0268 -8.26428 -4.63855
265 1 10.9317 -9.75201 2.98574
255 1 5.06017 -10.3758 -1.30611
253 1 6.12496 -8.43274 -0.373828
264 1 9.54124 -9.06642 2.92091
168 1 13.4815 -7.86256 -0.0531227
163 1 8.35112 -5.96827 -2.75515
167 1 12.3796 -7.35758 -1.01136
165 1 10.3109 -6.96138 -1.83286
166 1 10.9361 -7.63631 -0.537214
164 1 9.25408 -5.99619 -1.51669
251 1 6.48903 -6.48011 1.14591
115 1 11.3847 -3.88747 1.74054
116 1 12.6829 -4.15356 0.986949
152 1 16.7122 -5.56566 -3.62101
169 1 14.7229 -7.96823 -0.880858
170 1 15.4847 -9.444 -0.670703
153 1 15.4746 -5.31103 -4.35579
154 1 14.9675 -3.82344 -4.23561
155 1 13.4406 -3.82611 -3.72036
156 1 12.8946 -2.44137 -3.90097
157 1 11.5776 -2.65652 -4.71607
120 1 16.5323 -4.35333 3.23475
118 1 15.092 -3.53691 1.48031
119 1 15.314 -3.69481 2.90777
60 1 15.0816 -8.17525 3.67072
117 1 13.6847 -3.01742 1.10097
300 1 -16.4575 -3.66587 2.03425
299 1 -17.375 -4.85037 1.69519
298 1 27.9435 -4.30575 2.02827
295 1 24.4807 -5.08239 0.432424
297 1 26.8144 -5.07506 1.33642
296 1 25.6923 -4.17161 1.05953
280 1 27.1967 1.14219 2.13126
281 1 27.1144 0.321808 3.33755
162 1 7.27389 -5.03751 -2.75765
161 1 7.3793 -4.252 -3.98056
159 1 9.2346 -2.64015 -4.70158
160 1 8.03667 -2.87421 -3.80015
158 1 10.4555 -2.05581 -3.88608
291 1 20.7772 -6.17763 -0.872337
279 1 27.5555 0.249606 0.857108
277 1 25.6685 -0.574898 -0.494353
278 1 26.7167 0.483967 -0.384965
276 1 24.2511 0.00520584 -0.444915
294 1 23.8387 -4.38259 -0.683882
292 1 21.5834 -5.04868 -1.42497
293 1 23.0307 -5.33595 -1.54167
275 1 23.3252 -0.826389 0.320843
274 1 21.9651 -0.464205 0.241619
273 1 20.9434 -1.74285 0.312415
290 1 19.9248 -5.8299 0.366002
272 1 19.5369 -1.30566 0.174597
288 1 20.5829 -4.97563 2.7697
289 1 20.7521 -6.06435 1.7394
68 1 23.0311 -24.1481 9.95602
70 1 23.196 -25.809 8.07322
69 1 24.0071 -25.1181 9.24233
48 1 6.95596 -15.4492 5.36763
47 1 5.5314 -15.6199 4.86345
49 1 7.89137 -15.4832 4.33421
46 1 4.70712 -14.6618 5.52819
45 1 3.46906 -14.1397 4.71384
44 1 2.77158 -12.9383 5.31776
100 1 2.60717 -11.0465 10.086
50 1 9.26145 -15.6699 4.82737
36 1 7.39726 -10.4634 7.6653
34 1 8.52412 -12.359 8.70567
51 1 10.0951 -14.5546 4.22285
261 1 7.13655 -11.3168 3.98325
52 1 11.0663 -14.008 5.20691
33 1 9.94683 -12.7775 9.24614
35 1 8.52279 -10.8054 8.60125
54 1 11.9065 -12.1823 6.38008
56 1 13.1668 -10.1228 6.79726
53 1 11.0095 -12.5965 5.29421
55 1 11.7924 -10.6866 6.618
99 1 1.36751 -10.3622 10.2994
38 1 5.74398 -8.55532 7.74556
246 1 3.4207 -5.6218 4.84487
43 1 2.54678 -11.8735 4.26851
39 1 4.85582 -8.46801 6.55871
41 1 3.46912 -9.59766 5.07397
40 1 3.6302 -9.29411 6.52114
42 1 2.26812 -10.5086 5.0056
248 1 5.94801 -5.48046 4.5143
249 1 6.42879 -5.12021 3.11564
96 1 2.19037 -7.10708 9.38076
247 1 4.63056 -4.72365 4.90587
98 1 1.10177 -9.3581 9.17701
97 1 0.910949 -7.87087 9.69628
95 1 2.03474 -6.29384 8.07318
94 1 2.14138 -4.76609 8.26735
93 1 1.36895 -3.86865 7.13098
37 1 7.20011 -9.06307 7.46494
262 1 7.3424 -9.86283 3.63627
57 1 13.2016 -8.57671 6.79363
263 1 8.70185 -9.55963 4.11183
107 1 9.5405 -7.51407 10.5993
250 1 7.22643 -6.14802 2.4535
109 1 10.6046 -6.36097 8.56899
113 1 11.497 -4.94022 4.0398
112 1 10.4597 -5.87865 4.87954
114 1 11.0355 -5.10662 2.52099
111 1 10.2456 -5.28917 6.25052
110 1 9.96783 -6.48136 7.10498
108 1 9.51905 -6.3352 9.66575
58 1 14.5022 -8.32967 6.08716
59 1 14.2575 -7.58621 4.82265
282 1 25.593 0.333406 3.77268
92 1 1.35575 -2.56003 7.66501
91 1 0.379322 -1.66038 6.89719
283 1 25.126 -1.05394 4.35185
284 1 23.7388 -1.28181 3.87046
285 1 23.1539 -2.62423 4.27961
286 1 22.1104 -3.03603 3.35499
287 1 21.8982 -4.57055 3.38696
271 1 18.6463 -1.67843 1.3738
72 1 21.9902 28.6779 8.64327
71 1 23.3051 29.242 8.12667
66 1 22.1952 -24.5982 12.3148
64 1 21.6303 -25.8548 14.3329
63 1 22.1501 -26.7908 15.4523
62 1 21.0897 -27.1031 16.375
67 1 23.3261 -24.0812 11.4084
65 1 22.7051 -25.0062 13.7209
90 1 26.7116 -25.1951 11.8461
89 1 26.3375 -26.421 12.7418
88 1 25.5192 29.2351 11.7906
103 1 5.68489 -9.90361 11.9298
101 1 3.53682 -10.9719 11.2208
32 1 9.69298 -13.651 10.4991
31 1 10.8615 -13.3555 11.4015
105 1 8.00126 -8.75575 11.9349
102 1 4.39406 -9.74216 11.0519
106 1 8.54445 -7.3874 11.6845
104 1 6.49236 -8.62252 11.7985
30 1 -8.66204 15.9846 9.14033
9 1 -11.5968 21.275 10.0755
3 1 28.8475 20.6169 12.9981
4 1 -16.8541 21.5646 12.1698
5 1 -16.2842 20.9669 10.9547
6 1 -15.0856 21.7467 10.5576
8 1 -12.809 21.9944 9.75646
7 1 -14.0071 21.043 9.84063
22 1 -14.0123 16.4675 16.8938
23 1 -13.2327 17.3473 15.9456
24 1 -13.4089 16.963 14.4777
21 1 -14.0394 16.9356 18.2976
25 1 -12.4397 17.6907 13.5867
20 1 -15.5089 17.3491 18.5837
28 1 -10.1943 16.9858 10.9824
29 1 -10.0882 16.5463 9.51913
26 1 -11.8253 16.6022 12.6933
27 1 -11.5941 17.135 11.2869
1 1 28.7401 19.1617 14.8373
2 1 -17.2092 19.3636 13.5848
12 1 -11.0536 21.7965 13.6065
10 1 -10.8972 21.8161 11.2762
11 1 -10.9399 20.924 12.4379
13 1 -11.4622 21.0397 14.9029
14 1 -12.7897 21.43 15.3685
15 1 -12.9535 21.108 16.8369
16 1 -14.5184 21.0558 17.1359
18 1 -16.0477 19.9284 18.909
17 1 -14.8815 20.8369 18.6001
19 1 -15.5249 18.607 19.491
75 1 21.624 27.3373 12.2727
73 1 21.9734 28.6508 10.1988
74 1 21.8767 27.2551 10.7029
77 1 21.921 25.3094 13.6297
76 1 22.6313 26.5922 13.1405
79 1 22.1342 23.251 12.5323
78 1 22.8379 24.2148 13.4939
61 1 21.155 28.01 16.8577
87 1 26.0013 27.844 12.0796
85 1 25.5689 25.7159 10.8431
86 1 26.2341 27.0931 10.8662
84 1 25.2652 25.4244 9.3632
83 1 23.815 24.8128 9.07515
82 1 23.6321 23.4058 9.22929
81 1 22.6384 22.9433 10.1803
80 1 23.2546 22.7061 11.5535
ITEM: TIMESTEP
20000
ITEM: NUMBER OF ATOMS
300
ITEM: BOX BOUNDS pp pp pp
-2.1183004286927535e+01 3.2982004286927605e+01
-3.1899599890258337e+01 3.3774599890258415e+01
-3.2832552238288464e+01 3.0764552238214669e+01
ITEM: ATOMS id type x y z
128 1 8.81173 -15.927 -9.36961
197 1 6.82108 -11.8116 -11.1626
198 1 7.04095 -13.1458 -11.9417
196 1 6.48697 -12.2127 -9.68413
195 1 7.70381 -12.3694 -8.68451
199 1 8.06135 -13.1053 -13.0348
127 1 10.2092 -16.7097 -9.57859
200 1 9.24073 -13.9632 -12.7451
201 1 10.4342 -12.9595 -12.3576
202 1 10.4847 -12.2757 -10.9531
133 1 13.3412 -14.037 -10.2909
132 1 11.9533 -13.1837 -10.3399
130 1 9.51845 -13.3965 -9.19494
203 1 10.9513 -10.789 -11.1427
204 1 9.77271 -9.833 -11.0624
134 1 14.6744 -13.3015 -10.6107
210 1 7.27391 -10.1782 -17.1383
209 1 8.1069 -10.222 -15.8465
208 1 7.61866 -9.10549 -14.7718
148 1 8.25374 -6.6541 -7.75482
149 1 7.48263 -5.52236 -7.28772
150 1 6.21151 -5.33039 -7.96686
205 1 9.90057 -8.58745 -11.8769
206 1 8.63765 -8.37614 -12.6498
207 1 8.79008 -8.36226 -14.156
147 1 9.71008 -6.57837 -7.48544
126 1 10.9117 -17.0666 -8.19479
220 1 10.5983 -17.4325 -2.70782
125 1 12.4305 -16.6432 -8.27467
221 1 12.0614 -17.2709 -2.772
222 1 12.7299 -18.6072 -2.60847
224 1 15.0768 -19.1014 -3.2285
223 1 14.1014 -18.4076 -2.23302
226 1 16.2575 -18.7344 -5.31238
225 1 15.3773 -18.1011 -4.35861
227 1 16.6203 -17.8525 -6.45402
229 1 18.4986 -16.2561 -6.05783
228 1 18.1144 -17.6909 -6.38599
230 1 19.9128 -15.9724 -5.74953
212 1 2.38852 -14.4494 -6.56182
129 1 8.9814 -14.628 -8.5334
194 1 7.89206 -11.0678 -7.85167
219 1 9.99885 -16.5255 -3.79619
218 1 8.61518 -17.1027 -3.83668
214 1 4.44191 -15.7733 -6.3454
213 1 3.79456 -14.3785 -6.72585
215 1 5.99946 -15.6903 -6.45182
193 1 8.03422 -11.1268 -6.34672
216 1 6.70847 -16.6694 -5.39985
217 1 7.87731 -16.081 -4.57644
178 1 8.99203 -12.015 -1.63185
179 1 7.83836 -12.2109 -2.472
177 1 10.0605 -12.9002 -1.98666
131 1 11.0631 -13.1864 -9.01336
135 1 15.7843 -13.693 -9.59771
124 1 13.04 -16.4691 -6.98096
122 1 14.6843 -14.6945 -6.16526
121 1 14.7541 -14.4618 -4.72929
123 1 13.211 -14.9716 -6.67928
182 1 11.9655 -13.3848 -7.0863
181 1 11.194 -13.9087 -5.86411
183 1 11.946 -11.7174 -6.91779
185 1 13.6454 -11.1747 -5.21945
184 1 13.1537 -10.9988 -6.70734
173 1 14.4866 -13.4605 -0.968928
139 1 16.7409 -11.1819 -6.05292
171 1 16.1641 -12.0174 -2.05124
169 1 17.71 -10.0379 -2.17393
175 1 12.1061 -13.7806 -0.978
176 1 11.2761 -12.5379 -1.24804
174 1 13.3014 -13.4207 -0.0905107
136 1 16.2913 -12.3945 -9.04858
231 1 20.025 -14.7502 -4.85014
232 1 20.0583 -15.1777 -3.38971
233 1 18.9073 -14.5532 -2.66807
234 1 17.8733 -15.548 -2.52284
235 1 17.6007 -15.9696 -1.07074
137 1 17.3662 -12.6405 -7.94752
138 1 17.7784 -11.3286 -7.13996
290 1 21.9631 -11.4921 -0.285197
291 1 22.7382 -11.8431 -1.5359
292 1 21.8153 -12.3196 -2.56333
211 1 1.78461 -13.2316 -5.85017
191 1 9.3874 -9.96039 -4.51329
192 1 8.34319 -9.81092 -5.57633
180 1 6.62087 -11.4894 -1.93604
157 1 7.52562 -6.68813 -2.1863
159 1 7.83572 -8.3182 -0.39398
160 1 8.93537 -8.05671 0.531058
158 1 7.22486 -6.99323 -0.739613
156 1 7.98808 -5.29083 -2.42849
161 1 10.314 -7.89287 -0.235446
143 1 13.4811 -8.64203 -8.50544
146 1 10.2388 -8.04183 -7.64025
190 1 10.1746 -8.64772 -4.03714
186 1 14.2976 -9.83347 -4.8725
144 1 12.4234 -9.2879 -7.61293
145 1 11.5048 -8.20601 -6.79464
187 1 13.5541 -9.24832 -3.67512
140 1 16.0605 -9.85303 -5.97355
141 1 14.7416 -9.76411 -6.8365
142 1 14.8168 -8.65824 -7.88108
189 1 11.3413 -8.37444 -4.82559
188 1 12.5718 -8.03815 -3.98722
167 1 17.3715 -8.06319 -0.883339
165 1 14.8904 -8.34973 -0.366866
155 1 9.03015 -5.30431 -3.52415
154 1 9.7103 -4.0183 -3.62675
153 1 10.7335 -4.14372 -4.69869
151 1 12.5184 -2.78134 -5.60844
152 1 11.2068 -2.71543 -4.94856
275 1 16.9927 -5.5153 -4.13107
276 1 16.602 -4.15713 -3.56191
278 1 16.436 -4.72862 -1.02369
271 1 19.0321 -7.8335 -7.86809
273 1 17.7107 -6.78988 -6.06301
272 1 18.0608 -6.72518 -7.49489
293 1 22.2767 -11.5552 -3.78512
294 1 21.1994 -10.4784 -4.24604
274 1 16.8707 -5.61629 -5.6564
277 1 17.2329 -4.01414 -2.10654
295 1 21.8229 -9.11351 -4.23693
296 1 20.6963 -8.17709 -3.83863
120 1 14.2752 1.26983 -1.85708
119 1 14.43 -0.115907 -1.14897
118 1 13.2328 -0.921437 -1.56197
254 1 14.4645 -17.5245 2.3425
238 1 17.4113 -19.3269 0.344882
240 1 17.565 -21.7324 1.42378
239 1 17.9083 -20.2538 1.65229
237 1 18.1422 -17.9775 0.291353
249 1 8.71878 -16.7768 0.558819
248 1 8.51114 -15.2866 0.722647
246 1 6.78302 -13.6426 1.35987
247 1 7.11481 -15.0645 1.22865
43 1 6.18938 -14.9567 6.92514
41 1 6.5972 -12.5428 6.07331
40 1 6.52346 -11.098 6.58624
42 1 5.71765 -13.5363 6.86273
250 1 9.69395 -17.3085 1.55708
39 1 7.55327 -10.1976 6.05283
245 1 5.99935 -13.3081 2.62813
243 1 5.74999 -10.9076 2.98128
244 1 5.07858 -12.2019 2.36691
172 1 15.2578 -12.1862 -0.802771
170 1 17.4903 -11.4057 -1.6444
252 1 12.0384 -17.4539 1.90596
251 1 10.9659 -17.9291 1.03599
256 1 15.5257 -16.0045 3.97628
255 1 15.1315 -16.1481 2.55657
253 1 13.3946 -17.3596 1.30953
236 1 17.8064 -17.5234 -1.05422
262 1 9.69412 -13.2603 3.76801
263 1 9.9614 -11.8441 3.52292
257 1 14.6088 -15.0038 4.58962
264 1 11.0132 -11.5766 2.31599
258 1 13.5792 -15.6554 5.58729
259 1 12.3 -14.7741 5.85838
260 1 11.0791 -14.9065 4.90953
261 1 10.2566 -13.6299 5.08997
270 1 17.9792 -11.7393 4.43509
289 1 21.7028 -10.0012 -0.255207
288 1 21.6974 -9.59216 1.2536
287 1 20.912 -8.39682 1.52176
241 1 5.06195 -8.76857 3.98163
242 1 4.99057 -9.6551 2.7615
114 1 9.6585 -3.4231 0.531809
113 1 9.7608 -3.79425 2.02197
112 1 8.5716 -4.40801 2.6223
111 1 8.41811 -4.17848 4.14125
110 1 7.36851 -4.97268 4.77412
168 1 18.1422 -9.31932 -1.04065
266 1 13.489 -11.1604 2.56575
265 1 12.0981 -10.6528 2.8325
267 1 14.5839 -10.5091 3.30953
268 1 15.8534 -11.2643 3.12953
269 1 16.8517 -10.737 4.19015
163 1 12.693 -7.18861 -0.112918
57 1 12.5337 -3.49595 4.71564
166 1 16.2806 -8.42621 0.189362
164 1 13.9377 -7.56222 0.587452
162 1 11.4948 -7.49432 0.732853
58 1 13.3273 -2.16394 4.42609
60 1 13.182 0.032286 3.16081
59 1 12.4134 -0.983695 4.1289
56 1 13.1702 -4.5019 5.61053
54 1 13.56 -6.92641 5.76218
53 1 12.4872 -8.06038 5.73913
55 1 12.9499 -5.80749 4.921
286 1 19.7385 -8.64691 2.36215
284 1 17.9845 -7.09497 3.16021
285 1 19.531 -7.2729 2.87997
280 1 15.4017 -4.0642 1.32603
282 1 16.3805 -5.12423 3.3702
279 1 16.1992 -3.65829 0.0981043
283 1 17.8068 -5.63942 3.41607
281 1 16.2673 -3.89679 2.52567
300 1 21.1214 -3.81421 -3.82747
299 1 21.6315 -4.76784 -2.93631
298 1 20.5574 -5.89016 -2.9276
297 1 21.3499 -7.13987 -2.99604
115 1 11.0365 -3.49663 -0.0182312
116 1 11.3276 -2.00842 -0.527026
117 1 12.7721 -1.81702 -0.383326
81 1 31.8121 28.5566 6.6801
80 1 31.2196 27.2655 6.16358
79 1 30.0876 27.7093 5.19014
67 1 -19.3283 -31.7226 10.8641
66 1 -19.19 -31.0505 12.2295
65 1 -18.0799 -31.6548 13.0541
64 1 -18.6541 -31.737 14.4832
90 1 -14.5343 31.9573 13.1323
68 1 -20.739 -31.4729 10.2384
69 1 32.8462 32.8708 9.86736
44 1 6.8367 -15.3669 8.17986
45 1 8.31556 -15.6389 7.95091
100 1 8.6321 -10.9978 12.3872
99 1 7.94486 -12.1969 12.9094
96 1 5.46679 -12.4799 10.3997
98 1 7.45795 -13.1179 11.7872
97 1 5.95088 -12.9172 11.8097
95 1 4.32736 -11.5732 10.4938
94 1 4.44069 -10.1581 9.72094
101 1 7.67674 -9.80697 12.5504
46 1 9.10284 -14.9223 9.15952
38 1 7.66324 -9.02146 7.08491
47 1 10.0517 -13.9061 8.51442
49 1 10.4868 -11.5418 8.27393
48 1 10.4266 -12.7274 9.34046
50 1 11.9029 -10.9281 8.05391
51 1 12.0543 -10.2886 6.65971
93 1 3.21159 -9.88016 8.71803
102 1 8.2104 -8.63191 11.6211
103 1 7.26023 -7.44442 11.7658
104 1 6.6732 -6.96613 10.3644
36 1 9.31052 -7.26168 7.75076
37 1 8.69809 -8.04001 6.64194
105 1 5.89215 -5.68304 10.4919
92 1 3.71843 -8.70425 7.94581
91 1 2.72411 -7.62558 7.78174
107 1 6.08647 -4.62184 8.17826
109 1 6.65902 -4.13961 5.86094
108 1 5.91201 -4.9393 6.77239
106 1 5.21158 -5.43528 9.17669
35 1 9.8281 -5.87333 7.26563
52 1 12.7193 -8.89057 6.88265
34 1 9.67625 -4.87919 8.33916
32 1 9.5329 -2.55939 9.00986
33 1 10.0056 -3.46754 7.9736
31 1 10.7406 -1.80204 9.59159
29 1 -15.2032 25.2842 9.63423
28 1 -16.4116 25.408 10.3876
27 1 -17.6377 25.2771 9.54397
25 1 -20.0774 24.7754 9.25549
26 1 -18.947 24.8742 10.3045
1 1 26.5717 25.995 17.2899
23 1 31.7753 24.1292 9.31686
24 1 32.8593 24.8768 10.0649
21 1 29.2262 24.2098 9.0633
22 1 30.5383 25.0511 9.08299
3 1 26.1291 27.0874 14.9979
5 1 27.5106 28.8028 13.6699
20 1 28.2646 24.8208 10.0194
19 1 28.1601 24.1036 11.2642
30 1 -14.1374 26.2303 10.1792
86 1 -18.1318 30.5223 10.6705
84 1 -19.5322 29.0786 9.07576
88 1 -16.3041 30.5056 12.2884
9 1 32.3882 29.6392 12.8658
85 1 -18.6007 30.3014 9.25534
87 1 -16.6366 30.1087 10.8891
89 1 -14.8368 30.5726 12.549
83 1 -20.3044 29.0521 7.77028
10 1 -20.493 29.2858 13.558
11 1 -19.8044 28.0019 13.1121
82 1 32.5448 28.3792 7.92652
70 1 31.4282 33.0337 9.51375
71 1 30.6257 31.9799 10.211
72 1 29.7354 31.3862 9.21367
7 1 30.1535 29.005 13.4146
73 1 28.8118 30.5187 9.87547
75 1 27.2643 29.0668 8.44492
74 1 28.6401 29.1848 9.18047
77 1 27.7791 28.1579 6.11844
76 1 27.2536 27.8767 7.50449
78 1 28.8264 27.1341 5.75875
6 1 28.9245 29.3724 14.2649
8 1 31.3667 29.8788 13.8346
62 1 -19.5257 32.2529 16.1814
63 1 -19.3996 32.6403 14.7135
61 1 -20.7397 31.4614 16.4776
14 1 32.5343 25.429 14.5593
15 1 31.5318 24.6734 13.5181
13 1 -20.274 25.6939 13.8606
12 1 -19.7849 27.0709 14.2985
16 1 30.1719 25.2932 13.9577
17 1 29.0021 24.3879 13.6043
18 1 28.2098 25.0578 12.4419
2 1 25.5786 26.8009 16.4273
4 1 26.6488 28.6011 14.8986
ITEM: TIMESTEP
25000
ITEM: NUMBER OF ATOMS
300
ITEM: BOX BOUNDS pp pp pp
-2.0481170467385947e+01 3.2280170467385958e+01
-3.1048637697305594e+01 3.2923637697305622e+01
-3.2008503651925167e+01 2.9940503651818013e+01
ITEM: ATOMS id type x y z
128 1 10.2258 -18.6696 -5.65842
127 1 11.7219 -19.0617 -6.06494
126 1 12.8621 -18.9312 -4.83
125 1 13.733 -17.9065 -5.36887
124 1 14.115 -16.9431 -4.3473
227 1 18.5264 -17.9019 -6.01805
228 1 19.108 -18.1405 -7.35916
226 1 19.6994 -18.0089 -5.05069
225 1 19.4789 -16.9984 -3.92947
229 1 18.9397 -16.853 -8.19549
210 1 2.11001 -13.0523 -9.51463
209 1 3.48538 -13.4516 -10.0648
199 1 6.88522 -16.8232 -9.51774
207 1 5.75052 -12.7004 -10.3694
200 1 8.35982 -17.3284 -9.38239
201 1 9.41407 -16.3514 -9.84408
198 1 6.18384 -16.8356 -8.11977
197 1 6.34657 -15.4385 -7.43701
196 1 6.93439 -15.7357 -6.01797
195 1 8.23798 -14.9911 -5.51898
205 1 8.14195 -12.5172 -10.271
204 1 9.04711 -12.8643 -9.11728
208 1 4.51983 -12.3433 -9.60814
206 1 6.86491 -12.1718 -9.51571
202 1 9.76145 -15.3013 -8.75453
203 1 9.95885 -13.9669 -9.50104
146 1 8.71763 -10.2943 -6.56394
129 1 10.1652 -17.1216 -5.21593
130 1 9.79989 -16.133 -6.45203
133 1 13.1325 -15.9347 -8.31323
132 1 11.6054 -15.7979 -8.34114
134 1 13.6793 -14.8698 -9.1793
131 1 11.0182 -15.3274 -7.03611
135 1 15.0816 -14.9464 -9.34487
122 1 15.3041 -15.0041 -5.487
121 1 16.1226 -14.3861 -4.38543
123 1 14.0266 -15.491 -4.79142
182 1 12.3051 -14.3657 -5.39227
183 1 11.7411 -13.2268 -6.2714
185 1 13.6829 -11.5574 -5.6607
184 1 12.4876 -11.913 -6.49993
139 1 16.3235 -11.0838 -7.5029
136 1 15.601 -13.7632 -9.88345
137 1 16.5691 -13.1709 -8.91555
141 1 13.5976 -10.8124 -7.80365
138 1 16.5187 -11.6767 -8.92357
144 1 11.1056 -10.5712 -7.11399
143 1 11.4892 -9.48437 -8.13847
142 1 12.95 -9.53228 -8.35253
230 1 20.1643 -15.8383 -8.1832
231 1 19.7296 -14.6585 -7.24721
232 1 20.7573 -14.3925 -6.20325
233 1 20.3713 -13.1623 -5.44025
235 1 20.5175 -12.1834 -3.02374
234 1 21.1184 -13.0874 -4.15284
148 1 6.59013 -9.49276 -6.43671
149 1 5.63622 -9.28002 -7.59168
150 1 4.29238 -8.75349 -7.10519
147 1 7.93062 -9.04091 -6.88468
151 1 7.31858 -4.38107 -5.0166
140 1 15.0117 -10.3291 -7.18153
145 1 10.1385 -9.93572 -6.09588
274 1 12.2291 -5.33737 -6.71108
273 1 13.3234 -6.1115 -7.60376
272 1 14.446 -5.21214 -7.89314
271 1 14.443 -4.94771 -9.45397
186 1 14.0197 -10.0926 -5.45522
275 1 11.5003 -6.24936 -5.7593
276 1 10.7001 -5.32123 -4.83831
295 1 18.3409 -7.95212 -5.20142
212 1 7.05631 -18.5017 -1.9865
213 1 8.20159 -17.4984 -2.10818
214 1 9.31548 -18.2058 -1.58046
215 1 10.613 -17.3474 -1.7333
211 1 5.80655 -18.0305 -2.58712
216 1 11.6866 -17.6198 -0.742021
218 1 14.083 -17.1053 -0.417914
222 1 18.7406 -17.0799 -0.517903
220 1 16.21 -16.6024 -0.0363237
221 1 17.5273 -16.0237 -0.539911
219 1 15.2595 -16.5041 -1.12684
217 1 12.7697 -16.5628 -0.955183
223 1 19.7807 -16.7811 -1.51813
224 1 19.7497 -17.7966 -2.59214
194 1 7.8755 -13.6257 -4.93879
193 1 8.45328 -13.3957 -3.58878
192 1 8.51199 -11.9709 -3.06902
178 1 6.63329 -14.0529 -0.337151
179 1 5.38713 -14.6387 0.174738
180 1 4.31276 -14.9775 -0.914139
177 1 7.74428 -14.6301 0.50453
176 1 8.89282 -13.6788 0.822779
181 1 12.0711 -14.0676 -3.9166
191 1 10.0349 -11.467 -2.65107
173 1 12.3241 -13.2197 -0.481667
171 1 14.5622 -12.7905 -1.11153
175 1 10.1671 -14.1432 0.182262
174 1 11.3039 -13.3216 0.642619
172 1 13.7788 -13.1068 0.0500331
169 1 16.0316 -10.6746 -1.56577
170 1 15.7866 -12.0043 -0.779324
190 1 10.1677 -9.96174 -2.9518
168 1 16.2626 -9.57325 -0.537671
238 1 20.0932 -12.4997 0.738935
237 1 19.5695 -12.5539 -0.67568
236 1 20.6789 -12.7984 -1.6915
239 1 19.0022 -12.5865 1.70059
240 1 19.5552 -13.1694 3.07343
157 1 5.97794 -10.3157 -1.05669
152 1 6.45523 -5.0075 -3.9394
159 1 7.74334 -10.0858 0.476472
158 1 6.22275 -9.93203 0.328086
156 1 5.50332 -9.02116 -1.70751
155 1 6.50046 -8.5116 -2.68284
154 1 5.95117 -7.23879 -3.17277
153 1 7.08306 -6.32569 -3.47115
115 1 3.29379 -6.52476 2.71563
116 1 4.58395 -6.86041 1.89643
118 1 5.98183 -5.336 0.559425
117 1 4.66039 -5.76134 0.874343
120 1 7.37657 -3.44776 0.315089
119 1 5.97991 -3.96421 0.257853
187 1 13.5836 -9.75508 -4.02946
160 1 8.23978 -8.93102 1.3808
189 1 10.8892 -9.67375 -4.20816
161 1 8.91956 -7.78895 0.501866
188 1 12.2713 -9.02017 -3.92258
167 1 15.8722 -8.12343 -1.26256
165 1 13.6502 -7.25029 -0.839526
278 1 10.4235 -4.39848 -2.49641
277 1 11.1394 -5.35237 -3.39615
163 1 11.1955 -7.40889 -0.0267138
166 1 15.0516 -7.32156 -0.32178
164 1 12.6424 -6.98569 0.34913
162 1 10.2635 -7.37279 1.11987
290 1 19.7084 -8.09448 0.61591
291 1 20.4414 -8.08406 -0.647253
292 1 19.6777 -8.78397 -1.71589
293 1 19.8213 -8.10022 -2.99872
294 1 18.9453 -8.79466 -4.0017
289 1 19.5598 -6.60455 1.13089
296 1 16.9185 -7.8636 -5.16112
288 1 19.4082 -6.63556 2.76689
300 1 15.2285 -3.64546 -3.53779
299 1 14.801 -4.94301 -4.03808
298 1 15.8391 -5.97849 -3.85344
297 1 16.4168 -6.51608 -5.20032
287 1 18.6938 -5.30908 3.25656
286 1 17.2516 -5.60396 3.16021
285 1 16.5269 -4.37598 2.6526
280 1 11.7775 -3.35735 -0.593839
279 1 11.4172 -3.26299 -2.07343
282 1 13.705 -3.18015 0.940047
281 1 13.2438 -2.96448 -0.486706
60 1 11.498 0.738504 3.4132
283 1 15.0832 -3.79101 0.998142
57 1 10.5909 -2.49259 3.65141
59 1 11.8524 -0.44888 2.47819
73 1 -18.7705 -30.4846 8.29018
75 1 -19.1683 -29.0712 5.99534
74 1 -19.676 -29.509 7.41657
250 1 9.794 -14.7534 5.11193
253 1 12.8839 -15.8586 3.61075
254 1 14.0688 -16.5905 4.0209
251 1 10.4794 -15.489 4.04665
252 1 11.6924 -16.1612 4.59395
242 1 2.55999 -11.8951 1.72798
241 1 2.00021 -10.7408 0.957662
249 1 8.99973 -13.6532 4.61033
248 1 7.619 -13.6533 5.29378
246 1 5.30817 -12.8105 4.67004
247 1 6.82179 -12.7621 4.34735
43 1 10.5837 -12.441 9.47095
41 1 9.8194 -10.606 7.74767
42 1 9.43206 -11.5403 8.97285
245 1 4.75832 -11.4633 4.59244
243 1 3.67404 -11.2637 2.49248
244 1 3.49238 -11.3786 4.00333
264 1 13.5987 -10.5046 2.76968
255 1 15.3733 -15.6866 3.77707
256 1 16.3466 -15.8571 4.82324
262 1 12.3319 -11.8054 4.58492
263 1 12.5925 -10.4693 3.95265
257 1 16.7757 -14.5027 5.25299
258 1 15.9855 -14.1974 6.65664
259 1 15.2164 -12.9028 6.47133
260 1 13.7337 -13.2219 6.21869
261 1 12.9685 -11.8859 6.00481
49 1 15.104 -9.18553 8.27987
113 1 2.72768 -6.77161 5.22085
114 1 2.99008 -7.49602 3.88876
112 1 3.69385 -7.19793 6.22083
111 1 3.4619 -6.35121 7.5067
40 1 8.67563 -10.1439 6.88646
110 1 4.48502 -6.56514 8.49237
38 1 7.93356 -8.20062 5.60601
107 1 7.5983 -4.62365 8.36484
109 1 5.1294 -5.23912 8.89147
108 1 6.65558 -5.62413 9.13511
106 1 9.046 -5.17291 8.24533
35 1 7.20898 -4.86331 4.19465
105 1 9.99781 -4.07218 7.97096
39 1 9.10836 -8.97804 6.03981
36 1 6.94956 -6.25772 4.74394
37 1 8.00046 -7.26614 4.43855
33 1 6.22835 -2.6419 4.05219
34 1 6.23045 -3.97094 4.64003
266 1 15.8822 -10.3286 3.65372
268 1 17.6189 -10.2604 5.30727
270 1 19.6861 -11.5097 6.21428
104 1 11.2864 -4.21997 8.50792
265 1 14.6472 -9.55133 3.15251
267 1 16.9917 -9.53473 4.17928
269 1 19.1918 -10.3239 5.27223
284 1 15.2367 -4.72118 2.12086
50 1 13.7604 -8.50045 7.90722
51 1 13.9142 -7.66555 6.64792
54 1 11.5494 -5.8308 4.46811
53 1 12.8545 -6.49383 4.82891
55 1 11.8679 -4.51886 3.72411
52 1 12.5257 -7.40935 5.93082
56 1 10.6331 -3.92689 3.19548
103 1 12.1932 -3.15159 7.97594
102 1 13.5061 -3.57802 7.56547
32 1 4.84451 -2.10927 4.01982
31 1 4.79899 -1.20869 2.78788
58 1 10.7347 -1.55098 2.41289
29 1 30.8138 23.4489 6.91047
30 1 31.6988 22.3276 7.2942
61 1 -14.035 25.0296 7.67088
28 1 31.6477 24.4299 6.00493
27 1 31.0334 25.7763 6.01264
15 1 25.8349 26.6769 7.59925
83 1 -17.5393 27.3463 7.57236
81 1 -16.8761 29.1666 6.20665
80 1 -17.2021 30.5691 5.94949
82 1 -17.1787 28.8032 7.58841
79 1 -17.0188 31.1664 4.49238
78 1 -18.2396 31.7745 4.03439
77 1 -18.3195 -30.7159 4.31923
72 1 -19.549 32.1715 8.71943
76 1 -19.5532 -30.2153 5.04923
62 1 -13.2076 26.0937 8.28074
17 1 24.6598 28.0778 5.72989
25 1 31.7456 28.1295 5.7403
26 1 31.6976 26.7268 5.06839
18 1 24.8142 29.411 4.88725
19 1 25.9472 29.1729 3.84868
24 1 31.4128 29.2304 4.78807
23 1 30.2809 29.9874 5.33746
22 1 29.3302 30.3341 4.25304
21 1 27.9733 30.3195 4.83393
20 1 26.946 30.3335 3.70943
16 1 25.6354 28.1022 6.92248
5 1 29.5326 32.5287 9.51456
7 1 30.2489 30.0796 9.94071
6 1 29.0785 31.0733 9.74711
4 1 29.0596 -31.027 8.17172
1 1 26.1427 -28.8661 6.83273
92 1 7.65895 -8.88598 11.8014
91 1 6.83532 -9.09203 10.603
44 1 11.42 -11.8347 10.4921
94 1 10.0685 -8.6666 11.7351
45 1 12.9906 -12.1761 10.1811
47 1 15.05 -10.9942 10.0136
48 1 15.2916 -9.4493 9.71768
46 1 13.8846 -11.252 10.9317
93 1 8.84039 -7.9567 11.5079
96 1 12.3179 -7.81506 11.6123
95 1 11.2569 -8.44015 10.7808
97 1 12.6367 -6.52918 11.0618
98 1 14.0942 -6.28783 11.3073
100 1 14.9665 -4.86788 9.25312
99 1 14.629 -4.93956 10.6928
101 1 14.6181 -3.5155 8.73939
89 1 31.8065 22.6004 11.2284
88 1 -19.8187 23.4614 11.6635
85 1 -17.9667 25.6901 9.24065
86 1 -18.6803 25.2878 10.4879
87 1 -19.2804 23.9188 10.3591
90 1 30.9927 22.511 12.4271
13 1 27.3363 25.5513 8.85519
70 1 -19.1039 30.5597 10.6141
71 1 -19.506 32.0069 10.232
68 1 -16.6313 30.4379 11.1978
84 1 -18.3673 26.9938 8.64872
69 1 -18.0791 30.4915 11.7222
67 1 -16.07 29.1666 11.8075
66 1 -14.6767 28.9011 11.2757
64 1 -13.17 27.1977 10.4709
65 1 -14.4228 27.3594 11.2989
63 1 -13.0823 25.9365 9.77925
2 1 27.6262 -29.2248 6.89532
14 1 26.5881 26.8191 8.86353
12 1 28.1214 25.441 10.0584
10 1 30.1422 26.4043 11.0099
11 1 29.5518 25.7602 9.82203
3 1 28.1519 -29.7066 8.26294
9 1 30.8881 27.7437 10.7001
8 1 29.993 28.9418 10.8214
ITEM: TIMESTEP
30000
ITEM: NUMBER OF ATOMS
300
ITEM: BOX BOUNDS pp pp pp
-1.5923346576699021e+01 2.7722346576699152e+01
-2.5522349699894175e+01 2.7397349699894217e+01
-2.6656997028125431e+01 2.4588997028004890e+01
ITEM: ATOMS id type x y z
198 1 7.72072 -18.2799 -6.48671
207 1 5.43671 -13.3081 -9.8386
210 1 1.72856 -13.6476 -9.6355
208 1 4.14345 -14.0727 -9.65789
209 1 2.98766 -13.3447 -10.3684
147 1 5.84744 -10.9402 -5.12693
148 1 4.85143 -11.9432 -5.2508
150 1 2.48703 -12.3421 -5.85024
199 1 8.45963 -18.019 -7.82192
200 1 10.0236 -17.9398 -7.71948
201 1 10.771 -16.6421 -8.08927
203 1 9.91048 -14.2577 -8.15776