ITEM: TIMESTEP
40000
ITEM: NUMBER OF ATOMS
300
ITEM: BOX BOUNDS pp pp pp
-1.1882511882417912e+01 2.3681511882418047e+01
-2.0622902769494157e+01 2.2497902769494200e+01
-2.1912506202946300e+01 1.9844506202823371e+01
ITEM: ATOMS id type x y z vx vy vz
29 1 23.079 -18.0353 -9.864 -0.00269444 -0.00119594 0.000123996
30 1 23.1255 -17.0107 -10.9624 -0.00426394 -0.000779552 -0.00378071
135 1 12.942 -14.7107 -5.20093 0.00468229 -0.00252512 0.00454567
136 1 11.7497 -14.3965 -6.15789 -0.00215081 -0.00106608 -0.00349091
61 1 15.3714 -12.4103 -7.80807 0.000462016 0.00297368 -0.00566437
62 1 16.5959 -13.2152 -7.65992 0.00286457 0.00264816 -0.00247139
85 1 21.222 -14.1249 -8.12697 -0.0027794 0.000521907 -0.0068702
86 1 21.6338 -12.8566 -7.41654 -0.0102712 0.00214086 0.00245625
84 1 19.9216 -14.8419 -7.78097 0.00646461 0.00342132 -0.00176244
83 1 19.422 -15.8256 -8.74204 -0.00429582 -0.00404284 -0.000535659
63 1 16.618 -13.6705 -6.22257 0.00172276 -0.00259312 -0.000579966
82 1 18.8384 -17.0232 -8.0193 0.00413893 -0.00581071 0.000628527
81 1 19.2584 -18.4084 -8.66715 0.00564613 0.000699665 -0.00457071
28 1 23.1641 -19.4978 -10.3319 0.0037671 0.000107005 -0.00187972
80 1 18.6943 -19.6061 -7.95338 -0.00260945 0.000707267 -0.00503791
79 1 17.5079 -20.0806 -8.64278 -0.0043059 0.0045178 -0.00287451
87 1 22.4039 -12.0478 -8.45456 -0.000924682 -0.00259345 0.000269239
88 1 21.6485 -10.7154 -8.67097 0.00127728 0.00121178 -0.000178669
89 1 22.4896 -9.5603 -8.31891 -0.00131626 0.00160979 0.00223212
90 1 21.7022 -8.33755 -8.39474 -0.00560816 0.00580094 0.00102976
293 1 5.93598 -9.3773 -4.9734 -0.00529343 -0.00136585 0.00621652
292 1 6.97226 -8.74065 -5.80633 -0.00484708 -0.0077849 0.00578455
138 1 10.6985 -12.2708 -6.56802 0.00145723 0.00146589 -0.00379517
137 1 11.9782 -13.0135 -6.80832 0.00440353 0.0042489 -0.00322475
139 1 10.9958 -11.1318 -5.54088 -0.00257314 -0.00188871 -0.00740745
168 1 12.1167 -6.53699 -4.89726 0.00221949 -0.0040743 -0.00316744
227 1 17.3971 -9.19208 -6.52012 0.00578979 0.00208081 0.000550579
226 1 18.7204 -9.69937 -6.11232 0.000234927 0.00492619 -0.00357489
228 1 17.5485 -7.78722 -6.72504 -0.00333353 0.00103821 -0.00399979
229 1 16.3451 -6.92694 -6.15142 -0.00167687 0.00173698 -0.00158005
230 1 16.9764 -5.82229 -5.32719 0.000451411 0.00254191 0.000632765
291 1 6.16287 -7.74482 -6.69021 -0.00218398 -0.00616175 -0.00448432
290 1 6.68606 -6.35824 -6.61031 -0.000149637 -0.00112171 0.00474646
167 1 10.6228 -6.61852 -4.92907 0.00729136 -0.0013621 -0.0088851
270 1 15.7027 -1.5297 -4.79875 0.00292122 0.00310906 0.00785961
27 1 23.3126 -20.3696 -9.18748 0.00100627 0.00890779 -0.00347824
25 1 22.407 20.4515 -8.33765 -0.00591235 0.00239454 0.00310807
26 1 22.2627 21.6693 -9.25155 4.59625e-05 0.00267995 -0.00103498
24 1 21.3251 20.4716 -7.36527 0.00471008 -0.00218037 0.00660979
23 1 21.8362 21.1009 -5.93026 -0.00203068 0.00554439 0.0048369
78 1 17.1596 21.4956 -8.37021 0.000161333 0.000971875 -0.00234324
21 1 22.1194 -19.5882 -5.21469 -0.00544985 -0.00383008 -0.00414157
22 1 21.117 22.4848 -5.65572 0.00193532 0.00549511 -0.00356067
17 1 23.345 -16.1909 -4.17549 -0.00361411 -6.00582e-05 -0.00176019
210 1 5.39247 -18.108 -4.79009 -0.00455913 0.00442623 -0.00461563
208 1 6.82455 -17.006 -3.11082 -0.00366385 0.00405273 -0.00236762
206 1 8.12784 -17.7762 -0.984915 -0.00145754 0.00350912 0.0048832
207 1 8.04323 -17.7162 -2.52689 0.00184607 0.00623197 0.0066309
205 1 9.44289 -18.2933 -0.575807 -0.0031631 -0.00122422 -0.00374599
209 1 6.78542 -17.4553 -4.55698 0.000470397 -0.00499419 0.00203757
143 1 8.77054 -13.9528 -2.30042 -0.0027837 0.00522792 0.0106141
148 1 7.67091 -14.9806 2.76575 0.00139673 -0.00340397 0.00223185
149 1 6.42725 -15.6843 2.7883 0.00299244 -0.00492588 -0.000327946
146 1 8.76617 -14.08 0.871249 0.00188138 -0.00714072 -0.00179164
147 1 7.63392 -13.9408 1.70163 -7.92213e-05 0.00619778 0.000327588
150 1 6.68326 -17.0325 3.53455 -0.00237709 -0.00597989 -0.00459334
134 1 12.4344 -15.385 -3.9243 0.00359834 -0.000358866 -0.00507631
204 1 10.3153 -17.1751 0.148379 0.00258357 -0.00709751 0.00330189
203 1 11.4307 -16.5206 -0.637082 0.00415198 -0.00074419 0.00480257
200 1 14.3481 -18.7816 0.392987 -0.00363926 0.000130704 0.000422453
201 1 13.4066 -18.1302 -0.687918 -0.000235089 0.00359841 -0.000224835
202 1 12.8742 -16.6603 -0.187514 0.00797518 0.00356498 0.00675069
132 1 13.5372 -15.5993 -1.56667 -0.000473205 8.84805e-05 0.00351649
131 1 13.3664 -14.5601 -0.304049 0.00279762 -0.00371997 -0.00394185
133 1 13.5051 -14.9101 -2.92041 0.00874214 0.000772229 -0.00920299
198 1 14.37 -18.1721 2.87774 -0.00328863 -0.00193768 0.00161436
199 1 13.7235 -19.0942 1.86646 -0.00746178 -0.00529785 0.00235807
197 1 13.2588 -17.3612 3.56267 -0.000580845 0.00381893 0.00474597
128 1 16.7226 -15.4727 0.580238 -0.000812288 -0.0105311 0.00286726
130 1 13.9994 -14.9211 0.98284 -8.91309e-05 8.05897e-06 -0.00635155
196 1 13.5638 -15.8809 4.05591 0.00629218 0.00115134 0.000104114
194 1 11.969 -14.0764 3.08248 0.00316227 0.000884262 -0.00410298
195 1 13.2464 -14.8099 2.97543 -0.00127447 -0.00392311 -0.00381132
129 1 15.517 -14.5874 1.22263 -0.00351611 -0.002483 -0.00677763
13 1 21.0676 -15.0446 -0.24432 0.00421729 0.000922018 0.00471058
14 1 22.2138 -14.8042 -1.13708 5.87983e-05 -0.0013717 -0.00391795
16 1 22.1596 -15.6781 -3.45614 -0.00286547 -0.000916429 -0.0023703
15 1 22.4597 -16.0584 -2.01298 -0.00515206 -0.0027653 0.0041617
18 1 22.9037 -16.2 -5.6776 0.00574107 0.00401625 0.0060504
19 1 22.9337 -17.5478 -6.29383 0.00113687 0.00325143 0.00190362
127 1 17.0789 -15.4059 -0.852264 0.00191372 0.00103489 0.00738077
66 1 17.3764 -16.9039 -4.71081 0.00470235 0.00401112 0.00388439
64 1 16.5147 -15.1355 -6.029 -0.00617161 0.00224556 -0.00459609
65 1 16.9747 -15.4877 -4.67692 -0.00361547 -0.0020415 -0.00618739
68 1 17.9421 -18.369 -2.89297 0.00265306 0.000800503 -0.00604081
67 1 18.3363 -17.1956 -3.61062 -0.00194264 0.00691741 0.000895059
70 1 19.9033 -19.8525 -2.10968 0.00129306 -2.50391e-05 0.00109886
11 1 20.4241 -14.7518 2.13969 0.0107309 -0.0009112 -0.00531321
10 1 20.4522 -15.9209 3.13704 0.00242755 0.00457716 0.00334328
69 1 19.0311 -18.5792 -1.81408 -0.0053646 0.00584955 -0.00740476
12 1 21.5556 -14.892 1.18894 0.000586192 0.0040292 -0.00350982
20 1 21.7754 -18.4019 -5.97456 -0.00727891 0.00362274 0.00284862
31 1 1.24785 -6.25067 6.63667 -0.00146163 0.00238876 0.00524856
295 1 5.89753 -11.0698 -3.18363 -0.00348258 0.00166246 0.000102852
294 1 6.34537 -9.6297 -3.58578 -0.000366258 0.00150031 -0.00604223
300 1 2.87873 -14.356 0.827448 -0.000192627 -0.00309872 -0.00281786
144 1 9.53372 -13.2493 -1.17211 -0.000568341 0.00267589 0.00254522
145 1 8.62667 -12.8939 0.00221599 -0.000940648 0.00298924 -0.00274667
142 1 8.85916 -13.2615 -3.57947 4.64945e-05 -0.00734375 0.00394758
299 1 2.81378 -13.0824 -0.000250511 -0.00402965 -0.000940373 -0.000422539
298 1 4.13234 -12.3016 -0.0646818 -0.0013254 0.00424522 -0.00708662
297 1 4.76061 -12.4391 -1.44887 0.00135471 -0.0022722 0.00435137
296 1 5.71385 -11.169 -1.64263 -0.00439208 0.0013234 0.000275885
188 1 8.62988 -9.63306 -0.208168 0.00490445 0.0013704 0.0083462
187 1 9.77086 -9.19171 -1.27494 -0.00330563 -0.000413859 0.00454692
186 1 9.96882 -10.0107 -2.46932 0.00186973 0.00754731 0.00288479
189 1 8.75413 -10.8902 0.730244 -0.00349386 5.27077e-05 -0.00230518
283 1 4.8109 -8.17009 0.109895 -0.00506519 -0.00573124 0.00183031
282 1 5.61813 -8.43758 1.34074 0.00222723 -0.0059371 0.00700446
281 1 4.93796 -9.60092 2.1671 -0.00421483 -0.00644316 0.00305488
190 1 9.24966 -10.5218 2.14185 0.00235429 -0.000120967 -0.0017823
284 1 5.49796 -7.21203 -0.716544 0.00779042 0.000923174 -0.000879226
159 1 10.6182 -6.53061 3.61667 0.0091711 0.00683567 -0.00452154
121 1 14.5969 -10.9833 -4.16378 -0.0028366 -0.00378666 -0.00365784
141 1 9.96802 -12.376 -3.38245 -0.00440975 0.00533632 0.00729155
140 1 9.88718 -11.1031 -4.30338 0.00526483 -0.00326198 -0.00424844
184 1 11.1376 -12.2178 -1.9583 0.00151895 -0.00334032 0.00164441
182 1 13.3984 -12.4272 -0.661778 -0.00289683 0.00123287 -0.00243134
183 1 11.8938 -12.5112 -0.599546 0.00117574 -0.00193932 0.0015318
124 1 16.553 -11.9454 -1.33915 0.00291104 0.0068424 0.00192775
123 1 14.9881 -11.6274 -1.69287 0.00735048 -0.0112494 -0.000344593
122 1 15.1956 -10.5902 -2.77736 -0.0016737 -0.0036532 0.0017082
185 1 11.3298 -10.6818 -2.35922 0.00184792 -0.00657643 -0.00371818
171 1 13.0194 -7.44066 -1.74662 0.00105345 -0.00775092 -0.000649579
170 1 13.5789 -7.16789 -3.17611 -0.00061953 -0.00135053 0.00331994
169 1 12.7262 -7.83408 -4.19546 -0.00366999 -0.00344915 0.00311276
181 1 13.8119 -11.4458 0.433421 -0.00536041 0.00462194 0.00246349
193 1 12.2368 -12.6197 3.19091 0.000494138 0.00419611 -0.000119761
191 1 10.7078 -10.8312 2.29239 -0.000672531 0.00513252 -0.000400329
175 1 14.8644 -7.64139 2.68077 0.000524453 0.00564528 -0.00204211
174 1 14.2496 -6.64977 1.80573 0.00428243 -0.00461864 -0.00029383
173 1 13.5848 -7.47674 0.641557 0.00344501 0.00290164 0.00438118
172 1 13.9887 -6.96656 -0.627133 -0.00498282 0.00993026 -0.00589568
225 1 18.6148 -10.46 -4.82411 -0.00579626 0.00225017 -0.000493437
231 1 16.8844 -6.09174 -3.84188 0.00613324 -0.00803072 0.0027818
125 1 16.8666 -13.2302 -1.99961 -0.0067403 0.00218983 -0.00321791
126 1 17.7774 -14.099 -1.19408 -0.00220148 -0.00175316 -0.00129997
224 1 20.068 -10.8642 -4.15127 -0.00376624 3.18211e-05 -0.00376142
223 1 20.307 -10.2365 -2.76534 -0.00488378 -0.00324465 -0.00145616
232 1 18.2554 -6.38029 -3.32171 0.00272672 0.000918316 0.00180596
222 1 20.6765 -11.2164 -1.75966 0.000743689 0.000611212 0.00389439
220 1 19.7833 -11.3442 0.675076 -0.000291025 0.00590711 -0.00244522
221 1 20.4899 -10.48 -0.433049 0.000700218 0.00132273 -0.0012387
219 1 19.0852 -10.5379 1.50201 -0.0117287 0.00447686 0.000959866
218 1 17.9123 -11.2537 2.02191 0.00294987 -0.00750512 0.00269476
233 1 18.3229 -6.98282 -1.94637 -0.0027422 0.00322759 -0.00132098
241 1 21.0515 -7.10904 3.36897 0.00728458 -0.00236283 -0.000689272
60 1 0.371641 -6.80468 1.93463 0.0046365 -0.00206409 0.000173443
59 1 1.59346 -7.00649 2.80564 0.00587438 0.000549004 -0.00225604
58 1 2.16382 -5.58452 3.16216 -0.00377659 -0.00624538 0.000155786
285 1 4.59836 -6.64949 -1.75839 -0.00198005 0.00277421 -0.00129028
289 1 5.57691 -5.37259 -6.28372 0.00141223 -0.00367885 -0.00674497
288 1 5.79788 -4.97736 -4.83116 0.00338433 0.00195208 -0.00755146
287 1 4.80136 -5.63759 -3.84957 -0.00282512 -0.00234182 -0.00328231
286 1 5.44819 -5.70776 -2.63654 0.000834096 -0.00794195 -0.00342692
160 1 9.80814 -6.3939 2.46619 0.00269436 -0.00575805 0.000559239
55 1 5.69638 -4.95181 3.3243 0.00521843 0.00408485 0.00199585
56 1 4.40127 -5.50597 3.74404 0.00378567 0.000635538 -0.00135374
57 1 3.50991 -5.3466 2.64378 -0.0058625 -0.000760541 0.000138007
162 1 8.8791 -5.14478 0.527593 0.00489443 -0.00261507 -0.00170554
100 1 6.64621 -0.778063 -2.18531 -0.000883291 0.00126598 -0.00364229
99 1 7.59871 -1.09371 -3.16386 -0.00278174 -0.00192956 -0.00312576
165 1 9.75713 -5.79455 -2.6721 0.00342368 -0.001931 0.00274902
164 1 8.71206 -4.99581 -1.915 0.000267938 -0.00446582 0.00788588
161 1 10.099 -5.27573 1.42312 0.00161293 0.0022581 0.0017226
53 1 7.50276 -3.35692 3.34407 -0.000290306 -0.00215222 0.00165201
102 1 5.27583 -2.14454 -0.735396 -0.000526135 -0.0023874 0.00401151
101 1 5.39383 -1.66 -2.14479 0.00306745 0.00378772 -0.000852384
54 1 6.33562 -3.71541 4.05792 -0.0010478 -0.00259083 6.02358e-05
52 1 7.93893 -1.91201 3.48761 -0.00481945 -0.00111928 -0.00510454
166 1 9.98931 -5.51232 -4.16701 0.00574941 -0.00783219 -0.00462771
163 1 9.17193 -4.28812 -0.661533 0.00295105 0.000177323 0.00283122
269 1 14.2647 -2.02617 -4.50292 0.00361372 -0.00619372 -0.00867691
268 1 14.3181 -2.73001 -3.13596 -0.00714594 0.00271958 -0.0039567
266 1 13.3137 -2.99495 -0.96435 0.0041352 -0.00511184 0.00694136
264 1 12.8824 -3.00218 1.40407 -0.000393367 0.00728685 0.00372427
265 1 12.4309 -2.34177 0.137532 -0.000158922 -0.00347737 0.00436378
267 1 13.0532 -2.38908 -2.39414 -0.00601357 0.00265191 -0.000477885
51 1 8.7891 -1.4787 2.44666 -0.00257347 0.00259507 0.00379734
97 1 9.64141 0.372471 -3.15417 -0.00153298 -0.00732514 -0.000155985
95 1 11.2221 1.86199 -2.41126 -0.000790401 -0.00137619 0.00110893
93 1 13.4783 1.89783 -1.62109 -0.00697573 -0.00171096 -0.00478713
263 1 12.9766 -1.8495 2.42126 0.00508273 -0.00277884 0.00543615
49 1 9.18455 0.503585 1.0069 -0.00185133 -0.00567753 0.00120064
50 1 8.11353 -0.41896 1.64456 -0.00164946 -0.00874176 0.00249997
234 1 18.8772 -5.91986 -0.982233 -0.00264655 -0.0050802 0.000810792
235 1 17.7733 -5.80224 0.119786 0.00419361 0.0052791 0.00689328
236 1 17.5582 -4.43558 0.479421 -0.000864223 0.00222624 -0.00346243
91 1 15.5251 1.14997 -0.491176 -0.00240889 -0.00546213 -0.00169427
237 1 17.0549 -4.20625 1.86729 0.00381871 0.00185451 -0.000125298
238 1 16.6184 -2.76952 1.78233 0.00543678 -0.00143577 -0.000496996
239 1 17.1721 -1.80737 2.7915 -0.00618337 -0.00114032 -0.00031077
240 1 16.8048 -0.433391 2.27148 -0.00354184 -0.0029594 -0.00243912
103 1 3.85066 -2.06484 -0.341692 0.000632406 -0.00451327 -0.0047275
104 1 3.89102 -1.15372 0.786739 0.00377502 -0.00343735 0.00553334
98 1 9.0273 -0.935374 -2.6209 0.00440467 -0.000603149 -0.0020434
94 1 12.0135 1.92478 -1.2066 0.00408712 0.00792381 0.0011536
96 1 9.76627 1.57835 -2.16019 -0.00441198 0.000266936 -0.0013797
48 1 9.21029 1.76419 1.71439 -0.000995076 0.00276849 -0.00565405
92 1 14.1207 1.61451 -0.32561 0.00657091 0.00286392 0.00589995
71 1 19.1551 22.0621 -1.64716 -0.00397335 0.00400957 -0.00454266
77 1 16.2438 21.3582 -7.12887 0.00182456 -0.00201282 -0.0029006
72 1 19.3595 21.1545 -2.85494 -0.0007747 0.00138445 0.00342495
76 1 16.5876 20.1624 -6.23615 0.00164631 -0.00423186 -0.00750369
75 1 16.7138 20.626 -4.77134 -0.00418147 0.00275287 -0.000953577
74 1 17.8865 19.9415 -4.29352 0.000756864 0.00292272 0.00740949
73 1 18.0861 20.3243 -2.86855 -0.00821288 0.000595498 0.00115118
275 1 9.00108 -13.5887 6.07765 -0.00325934 0.0014725 0.00321257
274 1 9.07705 -14.9839 6.78467 0.000414613 -0.00398835 -0.00162674
276 1 7.55123 -13.1423 6.24084 0.0013511 0.000687415 0.00138753
277 1 7.39843 -12.0526 5.25891 0.00111945 -0.00799247 -0.00420515
212 1 13.8923 -14.1556 6.93476 0.00423136 0.00664916 0.000518803
211 1 12.7696 -13.4899 7.72591 -0.00268916 0.00432882 -0.00168992
213 1 15.1078 -13.2464 6.71214 0.00703289 0.000299411 0.00356629
272 1 9.95641 -16.9517 5.51776 0.00393126 0.00269406 -0.00343745
273 1 10.293 -15.6825 6.09837 0.000871538 0.0036432 0.000115166
271 1 10.6525 -18.1116 6.22742 0.00280997 -0.00377187 -0.00555099
9 1 19.2088 -15.9858 4.0552 -0.000692236 0.00603573 -0.00330801
8 1 19.4976 -16.8778 5.21899 -0.00197164 0.0126467 0.00214089
7 1 18.6294 -17.9646 5.27882 -0.00357579 -0.00456067 -0.000843473
6 1 19.3261 -19.2996 5.44834 -0.000895696 -0.00490112 0.00252016
5 1 19.5917 -20.0914 4.10498 0.00449582 -0.00492846 8.54998e-05
32 1 1.65187 -7.50966 7.3195 0.00154084 0.00335462 0.00405192
33 1 2.86004 -8.32839 6.72469 -0.00209242 -0.00322841 0.00253908
34 1 3.99145 -8.12766 7.55599 0.00208911 -0.00561197 0.000616002
157 1 10.426 -7.65664 5.75829 -0.00415097 -0.000944379 0.0120578
279 1 5.37052 -11.1809 4.1887 -0.00318588 -0.00501829 0.000622045
280 1 5.92352 -9.93822 3.28262 -0.00441227 -0.00110423 -0.000957689
278 1 6.11056 -11.3407 5.44337 -0.000132719 0.00776165 -0.00349359
158 1 9.61181 -6.79389 4.69841 0.00189689 0.00434376 -0.0018087
36 1 6.23738 -7.0724 7.8058 0.0059456 -0.00632954 0.00285111
156 1 9.57949 -8.89996 6.00165 0.000189434 0.00166164 0.00598076
154 1 9.49316 -10.203 8.05427 0.00131531 0.00392036 0.00169795
120 1 4.7403 -11.7339 9.71285 0.00324288 0.00611066 -0.000186841
119 1 4.26463 -10.4178 10.0779 5.07023e-05 -0.00110746 0.00122386
118 1 5.37539 -9.47062 10.4588 0.00123782 0.00494585 0.00252079
115 1 4.29406 -6.34473 12.1506 -0.00268191 -0.00295258 -0.000725908
116 1 5.06537 -7.33802 11.3457 0.00136457 0.00627011 0.00381586
117 1 4.94009 -8.73724 11.681 -0.00115001 0.00366572 -0.000391504
155 1 10.372 -9.69811 7.00413 0.0039608 0.00293404 0.0100951
192 1 10.9995 -11.7945 3.47603 -0.0046048 0.00482353 0.000459611
215 1 17.1946 -12.5675 5.50464 0.00211451 0.00340725 -0.00322156
256 1 12.3598 -6.08597 9.92009 0.0049467 0.0024347 0.00224942
214 1 16.3177 -13.7989 6.02915 0.000601579 -0.00184262 -0.00057834
178 1 14.3714 -8.29528 6.41723 0.00391562 -0.00282397 -0.00164543
177 1 14.4699 -8.71366 4.99417 0.00598793 -0.00474187 0.000900144
176 1 14.5699 -7.38903 4.24554 -0.00308432 0.00269713 0.00108569
152 1 9.51628 -11.6004 10.1333 -0.00160036 0.00127206 0.00465399
153 1 10.2168 -11.2345 8.83309 -0.000621459 -0.000190784 -0.00222999
151 1 9.56468 -13.1106 10.3405 -0.00538997 0.00234939 0.00515606
180 1 15.5282 -9.02003 8.57271 -0.00222709 0.00124222 0.00891434
179 1 14.7334 -9.42866 7.32854 0.00167319 0.00646868 0.00110331
216 1 17.2333 -12.6025 3.98158 0.00167498 -0.00222915 -0.00168847
217 1 17.988 -11.4538 3.52073 0.00126903 0.00715385 -0.000707133
37 1 7.07885 -5.96723 7.20295 -0.00277937 0.00187488 0.00152353
114 1 4.47602 -4.84603 11.5849 0.00569906 -0.000204889 0.000907489
35 1 5.00149 -7.45733 6.87476 0.00668858 -0.0035895 0.00561589
111 1 2.69824 -3.26923 8.60863 -0.00627522 -0.00603208 0.00170025
113 1 3.48001 -4.65674 10.5308 -0.00392696 0.00140298 0.00770725
110 1 3.40298 -3.03551 7.3312 0.00264887 0.00215023 0.00804099
38 1 7.12182 -4.89305 8.08048 -4.3727e-05 -0.00112027 0.00145089
109 1 2.52073 -2.58638 6.3129 0.00472192 0.0031066 -0.000136863
112 1 3.7129 -3.48711 9.68744 -0.00329213 0.000413089 0.00108388
108 1 3.29723 -1.66578 5.36715 -0.00337182 0.00429463 -0.0104819
39 1 8.4249 -4.283 7.94977 -0.00122313 0.00149166 0.00271633
40 1 8.13661 -2.83092 7.9629 0.00429448 0.00509069 -0.000266322
42 1 8.96248 -0.783535 7.00044 -0.00381689 0.00334332 -0.00192226
41 1 9.39453 -2.11721 7.69407 0.00167377 0.00357215 -0.000924901
107 1 2.27656 -1.29286 4.2029 0.00130159 -0.00197924 -0.0073287
106 1 3.34699 -0.87294 3.19719 -0.00390721 -0.00570519 -0.0025919
257 1 11.9424 -6.10579 8.43051 0.00244553 -0.00270942 0.00418399
43 1 10.2681 -0.211489 6.3711 -0.00651845 -0.00195362 0.00404138
262 1 13.5407 -2.46319 3.70298 0.00198581 -0.00518558 -0.000951064
261 1 12.5557 -3.02681 4.63446 -0.000478427 0.000395365 0.00133184
244 1 18.8995 -5.36696 5.27459 0.00654456 -0.00296685 -0.000204075
44 1 10.0165 1.05997 5.68004 -0.00330834 0.00192878 -0.00355132
260 1 13.1511 -3.98635 5.46273 -0.00773944 0.000976628 0.00212739
258 1 13.0024 -5.33359 7.70541 0.00212526 -0.00107668 0.00229194
45 1 11.0398 1.20822 4.67373 -0.00494837 -0.000408634 0.00235591
245 1 17.6659 -5.41409 6.22444 0.00220122 -0.00261654 0.00820554
259 1 12.2682 -4.30531 6.70993 -0.00541613 0.00217302 -0.00152034
246 1 17.3709 -4.02354 6.69838 0.00113928 0.00127561 -6.77104e-05
247 1 16.4912 -4.22527 7.96373 -0.00353357 -0.00388406 0.000156568
248 1 15.7686 -2.88893 8.15903 -0.00244844 0.0033929 -0.00328064
249 1 15.0287 -2.88463 9.45996 0.00449585 -0.00539815 0.000900199
250 1 14.1374 -1.589 9.56277 0.00333386 -0.00280105 -0.00228296
46 1 10.7188 2.50121 3.78147 -0.000171723 -0.00597701 -0.00212805
47 1 10.6281 2.08573 2.31154 -0.00622383 0.00541394 0.00201332
243 1 18.9539 -6.62958 4.40783 -0.000858644 -0.000349137 -0.00740191
255 1 11.1683 -5.60389 10.8026 0.00114639 -0.000314853 -0.00206253
242 1 20.2052 -7.42435 4.52842 0.00746689 0.00014035 -0.00229478
105 1 3.29858 -1.83765 1.96149 -0.00559354 0.00127422 -0.00136042
3 1 19.4788 20.6351 3.18138 0.00273042 0.000917637 -0.00748743
4 1 18.6899 21.7674 3.9522 -0.00375457 0.00252614 0.00341633
2 1 18.6211 20.1878 2.03545 0.0013754 -0.00132079 -0.000677706
1 1 19.5294 19.6245 1.00144 -0.00376354 -0.00559885 0.0020724
254 1 11.7428 -4.55802 11.7306 -0.000134665 -0.00128986 0.00053905
253 1 11.239 -3.27028 11.2851 0.00222619 -0.000946353 -0.00195747
251 1 12.6488 -1.83463 9.82181 0.00616631 -0.000808428 0.00058028
252 1 12.3919 -2.33277 11.2737 0.0016572 0.00124563 -0.00399565
ITEM: TIMESTEP
50000
ITEM: NUMBER OF ATOMS
300
ITEM: BOX BOUNDS pp pp pp
-1.4186408786457999e+01 2.5985408786458134e+01
-2.3416340627873524e+01 2.5291340627873566e+01
-2.4617595262603000e+01 2.2549595262480072e+01
ITEM: ATOMS id type x y z vx vy vz
81 1 14.4494 -19.0543 -9.11919 -3.35126e-05 -0.00336829 0.0051068
83 1 13.7002 -17.4194 -10.8417 0.00403166 -0.0102954 0.00306961
82 1 13.9141 -17.7184 -9.45356 0.00181794 0.00232965 0.000793718
84 1 12.8683 -16.1413 -10.9688 0.000863967 0.00399511 -0.000671049
85 1 13.2382 -15.4893 -12.2663 -0.00302913 -0.00367884 0.00307853
30 1 18.205 -21.076 -10.3245 0.00219437 0.000964512 -0.00574765
80 1 15.3913 -18.7819 -7.99212 0.00360228 0.00280219 -0.00307527
29 1 18.6532 -19.6871 -10.3639 -0.000834682 -0.00367951 0.0116283
26 1 17.0681 -16.5577 -11.7447 -0.00356123 -0.00373239 0.00205621
28 1 17.9769 -18.8599 -11.3437 0.00156145 0.00276873 -0.00184144
27 1 17.8368 -17.4757 -10.7536 0.00429095 -0.00176827 0.00100988
25 1 18.0941 -15.3726 -12.0872 -0.00302601 0.00452465 -0.00600209
1 1 22.1009 -14.7695 -11.3183 -0.00264383 0.00386211 0.000946505
86 1 13.525 -14.0456 -11.9336 -0.00458017 0.00133132 -0.0046034
87 1 13.1877 -13.1856 -13.0534 -0.000135643 -0.00751908 -0.00458269
66 1 13.4422 -13.3645 -8.32938 0.00478394 0.0087239 0.00165798
89 1 13.4201 -10.599 -13.8705 -0.00287146 0.00728417 0.00112441
88 1 13.8033 -11.7169 -12.9066 -0.000693213 0.00612531 0.00155094
90 1 13.3293 -9.44547 -12.8315 -0.00542012 0.000301745 -0.00130974
68 1 15.4242 -14.5356 -8.16079 0.00209497 -0.00307331 -0.00431286
24 1 17.4114 -14.0413 -11.668 0.00132494 -0.00328693 0.00161813
23 1 18.2695 -12.8639 -11.8463 0.00146487 0.00663324 -0.00336547
22 1 17.8515 -11.5745 -11.1107 -0.00668486 -0.000654356 -0.00421974
21 1 19.0246 -11.1604 -10.3474 -0.000430576 0.000391663 -0.0016499
288 1 7.72312 -16.5898 -0.580113 0.00203083 0.00229576 0.00740461
140 1 10.1239 -14.795 -2.53066 0.000803397 0.00809822 0.00284662
138 1 10.7143 -15.3891 -5.04754 -0.000399639 0.00204362 0.00230261
142 1 11.2574 -17.189 -1.90993 0.00274544 -0.000802471 0.000212269
143 1 11.9046 -17.7662 -0.648804 0.000151596 -0.00571695 -0.00275228
79 1 15.9636 -20.0259 -7.55673 -0.000822103 0.00382906 0.00339537
78 1 17.2567 -19.4525 -6.94809 0.00391881 0.000901033 0.00227347
135 1 14.4718 -15.9187 -5.22309 -0.00457138 0.00123603 0.00210197
136 1 13.0138 -16.365 -5.2654 -0.0049536 0.00194809 -0.00589003
77 1 17.9984 -20.4392 -6.12695 -0.000622078 -0.00320993 -0.00205071
134 1 15.1973 -16.986 -4.50325 -0.00465669 0.000293046 0.00428399
132 1 16.6942 -16.9079 -2.64401 -0.00329567 -0.00163486 0.00236107
133 1 16.3788 -16.4567 -3.95511 0.00641348 -0.00305448 -0.000286717
201 1 17.8153 -19.3019 -1.74248 -0.000216995 0.00400643 -0.00135908
131 1 16.5545 -15.9744 -1.3741 -0.00185457 0.00694852 0.0047398
141 1 11.1917 -15.6582 -1.81819 -3.41564e-05 0.00635961 -0.00344382
137 1 12.0929 -15.198 -5.6537 -0.00246226 -0.00292252 0.00218079
184 1 13.0589 -15.1124 -1.23584 -0.00338822 0.000357303 -4.2368e-05
203 1 15.4519 -18.8202 -1.18893 -0.000732573 0.00306618 -0.00659782
202 1 16.8714 -18.1924 -1.17127 -0.00494092 0.0055744 -0.00706601
76 1 19.5325 -20.4294 -6.47468 -0.00237794 -0.00767004 0.00760491
72 1 19.7546 -16.481 -7.18508 -0.00150092 -0.00159843 -9.61304e-05
75 1 20.2252 -19.4403 -5.58096 -0.00306434 0.00622598 -0.00525815
74 1 20.9956 -18.3114 -6.29251 -0.00729942 0.0016671 -0.00599683
73 1 20.4435 -16.8922 -5.90691 1.99673e-05 -0.00148179 -0.00210939
3 1 21.6796 -13.4826 -9.03998 0.00389703 -0.0036898 -0.00191721
2 1 22.0771 -13.5 -10.585 0.00255517 0.000782865 -0.00728937
127 1 20.086 -15.2015 -2.42472 0.00829215 0.00410232 -0.000964539
5 1 22.9818 -14.434 -7.26068 -0.00545239 0.00161672 -0.00246063
61 1 8.10503 -10.8545 -8.55237 0.00730499 0.0025569 -0.0020611
62 1 9.08123 -11.9799 -8.50749 0.00914801 0.000920156 0.00622029
167 1 7.6894 -10.8145 -3.99727 -9.70474e-05 -0.00734591 0.00244604
166 1 7.35465 -10.3169 -2.61643 0.00382428 0.00176343 0.000430375
168 1 8.72065 -9.96969 -4.50505 -0.00228641 0.00239029 -0.00414467
63 1 10.4495 -11.7256 -9.09918 0.00132614 -0.00317627 -0.00345254
70 1 17.7745 -15.4424 -8.06945 -0.00921282 -0.00199774 0.000400374
139 1 10.6171 -14.3365 -3.96666 0.00290903 -0.00556818 0.00360532
64 1 11.4675 -11.9918 -8.04673 -0.00169178 -0.000933615 -0.00226732
67 1 14.8759 -13.2608 -8.53244 0.00650439 -0.00395332 -0.00173207
186 1 10.713 -13.9613 -0.567352 -0.00207227 -3.19027e-05 -0.000650134
65 1 12.7701 -12.1296 -8.88094 -0.000402943 0.00288141 -0.000368014
69 1 16.8113 -14.3179 -7.71538 -0.00215334 -0.00557197 0.00277761
121 1 14.1465 -12.3193 -3.75584 0.000440592 0.00141617 -0.00201933
123 1 16.4713 -13.084 -2.95366 0.00379534 0.0036991 -0.0010368
122 1 15.5475 -12.784 -4.17115 0.00185454 0.0037891 -0.00554384
185 1 12.2876 -13.8077 -0.97432 0.00110073 0.00374203 -0.000405248
170 1 11.1071 -9.62489 -3.72987 0.00329151 -0.0026477 -0.000590307
169 1 10.0914 -10.5573 -4.49447 -0.000845562 -0.00328579 -0.000402446
182 1 15.5015 -14.1893 -1.32654 0.00413304 -0.00666776 -0.0007441
124 1 17.9261 -12.529 -3.37537 -0.00287251 0.00248618 0.00396721
227 1 13.0404 -6.09806 -6.13927 -0.00123834 -0.00311256 0.0033661
171 1 11.632 -10.3839 -2.57407 -0.00040087 0.00148005 0.00244526
226 1 13.6443 -6.80272 -7.28584 -0.00297876 -0.000290203 0.00364928
225 1 13.7849 -8.28047 -7.14435 -0.00395079 -0.00793208 -0.00318622
224 1 15.2153 -8.54853 -7.32756 -0.0061988 0.00617978 0.00634471
172 1 12.3825 -9.46235 -1.70932 -0.000824484 0.00357256 0.00283078
223 1 15.6845 -9.41716 -6.1497 0.00799686 -0.000810003 -2.53909e-05
222 1 16.9787 -8.80337 -5.40962 -0.000774851 0.00774746 -0.00561441
221 1 16.7962 -8.87498 -3.97925 -0.00141017 -0.00149507 -0.000522235
219 1 17.9718 -8.73449 -1.84116 -0.00113507 -0.00264485 0.00237535
71 1 18.7025 -15.6011 -6.91894 0.0013514 -0.00806822 -0.00139655
4 1 22.8265 -13.2806 -8.19129 -0.00106075 -0.000166448 -0.00576849
6 1 24.272 -14.3425 -6.29879 0.00110173 -0.000137956 -0.00680268
125 1 18.8115 -13.7454 -3.7368 -0.0090491 0.00319284 0.00410307
20 1 18.5501 -10.4162 -9.00164 -0.00213518 0.0043042 0.00233501
126 1 20.0277 -13.7813 -2.87196 0.00235769 0.000300622 0.00101867
19 1 19.1147 -11.1037 -7.80746 -0.00762842 0.00167851 0.00419457
220 1 18.1158 -8.52609 -3.38877 0.00288106 -0.00524686 -0.002312
18 1 20.4098 -10.3287 -7.23543 0.00171574 0.00315538 -0.00252577
17 1 20.8533 -10.7989 -5.85461 -0.00477319 -6.2942e-06 0.0037453
16 1 21.8938 -9.97892 -5.28899 -0.00468572 -0.00204772 -0.00350991
8 1 24.4367 -15.0034 -3.98249 0.000112633 -0.000727 0.00196725
7 1 23.7333 -14.1169 -4.86621 -0.00255779 -1.46275e-05 0.00225431
15 1 21.6921 -9.73348 -3.8191 0.00282773 -0.00520981 0.00271142
14 1 22.8789 -10.1184 -2.99255 -0.00107988 0.000405419 0.0006545
270 1 8.54414 -5.47325 -5.95106 0.00177526 0.00227159 0.00163539
269 1 8.00726 -6.18726 -4.70917 -0.00315622 0.002872 -0.0042282
268 1 8.47648 -5.4817 -3.50583 -0.00103405 0.00312414 0.00406358
229 1 14.2272 -6.03654 -4.14507 6.15357e-05 0.00161811 0.0111094
228 1 14.0814 -5.24158 -5.35004 -0.00546371 -0.00170989 -0.00408237
95 1 8.52788 -1.74026 -0.817143 -0.00482034 -0.00199195 0.00465555
231 1 14.4205 -5.99129 -1.72225 -0.00318557 -0.00254267 -0.00405348
230 1 14.9184 -5.31513 -2.92647 0.00427507 0.00469317 0.00392079
232 1 15.0845 -5.25247 -0.628119 0.00239199 -0.000691918 -0.00213207
93 1 10.7043 -1.54009 -2.18651 -0.00386058 -0.00218033 0.000573633
267 1 8.82145 -6.32589 -2.22906 0.0032271 0.00252413 -0.000391339
94 1 10.043 -1.64934 -0.828439 -0.00331143 0.00398616 -0.00807647
92 1 12.156 -1.23646 -2.10314 -0.000913101 0.000834777 0.0123704
91 1 12.7742 -1.80323 -3.31413 -0.00524969 0.00403927 -1.67292e-05
290 1 8.46943 -17.8409 1.46923 0.00480042 -0.002146 0.00175533
289 1 7.53515 -17.8313 0.343661 0.00603075 -0.00441058 0.00364493
287 1 6.55807 -15.7006 -0.855841 -0.00317112 0.00857319 0.00340021
291 1 7.93931 -17.2632 2.81472 -0.00501252 0.00942121 -0.000524817
292 1 8.89125 -17.6158 3.98271 0.00286585 -0.00340237 0.00503164
293 1 8.10881 -18.0765 5.10939 0.00566444 -0.000611317 0.00367021
294 1 9.01578 -18.7697 6.00771 -0.00414005 -0.00137224 -0.00252262
295 1 8.43786 -19.4893 7.17865 0.00440434 -0.00219072 0.00599523
208 1 11.3623 -22.183 1.05674 0.0012922 0.00156149 -0.00773716
207 1 12.8317 -22.3427 0.553941 -0.00173413 -0.00310702 -0.00492486
205 1 14.3089 -20.6291 -0.200174 -0.00286298 -0.0040605 0.00271246
206 1 13.6592 -21.1469 1.00134 0.00659431 0.00670776 0.00141314
204 1 15.1893 -19.441 0.181484 0.00246816 0.00931603 0.00274827
144 1 12.7273 -16.7221 0.00710708 -0.00220878 -0.00192688 8.7126e-05
149 1 13.047 -20.1089 5.2016 -0.000263342 -0.00731216 0.00190344
147 1 12.598 -18.4526 3.2835 0.00929447 -0.00195521 0.00306539
148 1 13.0692 -18.607 4.78206 -0.00378833 0.00540013 0.00689031
145 1 12.285 -16.5585 1.56918 0.00458324 0.00026641 0.00436692
150 1 13.2195 -20.3611 6.63463 -0.0089671 0.00340516 0.00715469
146 1 13.275 -17.2222 2.51573 -0.000176465 0.000942173 0.000166705
130 1 17.6593 -16.2408 -0.195497 -0.00615645 -0.00501939 -0.00194852
194 1 16.2895 -16.0096 2.87444 0.0015851 0.00270169 0.00548028
195 1 17.2908 -16.4751 1.84025 -0.00505312 -0.00439886 -0.00104244
197 1 18.3043 -18.8719 2.29188 0.00222065 -0.000242172 0.000700049
196 1 18.3325 -17.35 2.54841 0.00424135 -0.0032432 0.00563614
183 1 14.4992 -15.0158 -0.581815 -0.00190267 0.00122493 0.00326292
129 1 18.673 -15.1559 -0.191753 0.0103048 0.00117173 0.00105657
128 1 20.1231 -15.3567 -0.854948 0.00265083 0.00148935 0.000911492
200 1 19.1902 -19.4495 -1.14668 -0.000870831 -0.00649649 -0.000254603